# vtk DataFile Version 3.0
# File generated by the BrokkrIE Library (By Jake J. Harmon) on Tue Aug 13 11:45:10 2024

ASCII
DATASET UNSTRUCTURED_GRID

POINTS 1024 double
-0.55 -0.55 -0.55 
-0.55 -0.504167 -0.55 
-0.55 -0.458333 -0.55 
-0.55 -0.4125 -0.55 
-0.55 -0.55 -0.504167 
-0.55 -0.504167 -0.504167 
-0.55 -0.458333 -0.504167 
-0.55 -0.4125 -0.504167 
-0.55 -0.55 -0.458333 
-0.55 -0.504167 -0.458333 
-0.55 -0.458333 -0.458333 
-0.55 -0.4125 -0.458333 
-0.55 -0.55 -0.4125 
-0.55 -0.504167 -0.4125 
-0.55 -0.458333 -0.4125 
-0.55 -0.4125 -0.4125 
-0.55 -0.55 -0.4125 
-0.55 -0.504167 -0.4125 
-0.55 -0.458333 -0.4125 
-0.55 -0.4125 -0.4125 
-0.55 -0.55 -0.366667 
-0.55 -0.504167 -0.366667 
-0.55 -0.458333 -0.366667 
-0.55 -0.4125 -0.366667 
-0.55 -0.55 -0.320833 
-0.55 -0.504167 -0.320833 
-0.55 -0.458333 -0.320833 
-0.55 -0.4125 -0.320833 
-0.55 -0.55 -0.275 
-0.55 -0.504167 -0.275 
-0.55 -0.458333 -0.275 
-0.55 -0.4125 -0.275 
-0.55 -0.55 -0.275 
-0.55 -0.504167 -0.275 
-0.55 -0.458333 -0.275 
-0.55 -0.4125 -0.275 
-0.55 -0.55 -0.229167 
-0.55 -0.504167 -0.229167 
-0.55 -0.458333 -0.229167 
-0.55 -0.4125 -0.229167 
-0.55 -0.55 -0.183333 
-0.55 -0.504167 -0.183333 
-0.55 -0.458333 -0.183333 
-0.55 -0.4125 -0.183333 
-0.55 -0.55 -0.1375 
-0.55 -0.504167 -0.1375 
-0.55 -0.458333 -0.1375 
-0.55 -0.4125 -0.1375 
-0.55 -0.55 -0.1375 
-0.55 -0.504167 -0.1375 
-0.55 -0.458333 -0.1375 
-0.55 -0.4125 -0.1375 
-0.55 -0.55 -0.0916667 
-0.55 -0.504167 -0.0916667 
-0.55 -0.458333 -0.0916667 
-0.55 -0.4125 -0.0916667 
-0.55 -0.55 -0.0458333 
-0.55 -0.504167 -0.0458333 
-0.55 -0.458333 -0.0458333 
-0.55 -0.4125 -0.0458333 
-0.55 -0.55 0 
-0.55 -0.504167 0 
-0.55 -0.458333 0 
-0.55 -0.4125 0 
-0.55 -0.55 0 
-0.55 -0.504167 0 
-0.55 -0.458333 0 
-0.55 -0.4125 0 
-0.55 -0.55 0.0458333 
-0.55 -0.504167 0.0458333 
-0.55 -0.458333 0.0458333 
-0.55 -0.4125 0.0458333 
-0.55 -0.55 0.0916667 
-0.55 -0.504167 0.0916667 
-0.55 -0.458333 0.0916667 
-0.55 -0.4125 0.0916667 
-0.55 -0.55 0.1375 
-0.55 -0.504167 0.1375 
-0.55 -0.458333 0.1375 
-0.55 -0.4125 0.1375 
-0.55 -0.55 0.1375 
-0.55 -0.504167 0.1375 
-0.55 -0.458333 0.1375 
-0.55 -0.4125 0.1375 
-0.55 -0.55 0.183333 
-0.55 -0.504167 0.183333 
-0.55 -0.458333 0.183333 
-0.55 -0.4125 0.183333 
-0.55 -0.55 0.229167 
-0.55 -0.504167 0.229167 
-0.55 -0.458333 0.229167 
-0.55 -0.4125 0.229167 
-0.55 -0.55 0.275 
-0.55 -0.504167 0.275 
-0.55 -0.458333 0.275 
-0.55 -0.4125 0.275 
-0.55 -0.55 0.275 
-0.55 -0.504167 0.275 
-0.55 -0.458333 0.275 
-0.55 -0.4125 0.275 
-0.55 -0.55 0.320833 
-0.55 -0.504167 0.320833 
-0.55 -0.458333 0.320833 
-0.55 -0.4125 0.320833 
-0.55 -0.55 0.366667 
-0.55 -0.504167 0.366667 
-0.55 -0.458333 0.366667 
-0.55 -0.4125 0.366667 
-0.55 -0.55 0.4125 
-0.55 -0.504167 0.4125 
-0.55 -0.458333 0.4125 
-0.55 -0.4125 0.4125 
-0.55 -0.55 0.4125 
-0.55 -0.504167 0.4125 
-0.55 -0.458333 0.4125 
-0.55 -0.4125 0.4125 
-0.55 -0.55 0.458333 
-0.55 -0.504167 0.458333 
-0.55 -0.458333 0.458333 
-0.55 -0.4125 0.458333 
-0.55 -0.55 0.504167 
-0.55 -0.504167 0.504167 
-0.55 -0.458333 0.504167 
-0.55 -0.4125 0.504167 
-0.55 -0.55 0.55 
-0.55 -0.504167 0.55 
-0.55 -0.458333 0.55 
-0.55 -0.4125 0.55 
-0.55 -0.4125 -0.55 
-0.55 -0.366667 -0.55 
-0.55 -0.320833 -0.55 
-0.55 -0.275 -0.55 
-0.55 -0.4125 -0.504167 
-0.55 -0.366667 -0.504167 
-0.55 -0.320833 -0.504167 
-0.55 -0.275 -0.504167 
-0.55 -0.4125 -0.458333 
-0.55 -0.366667 -0.458333 
-0.55 -0.320833 -0.458333 
-0.55 -0.275 -0.458333 
-0.55 -0.4125 -0.4125 
-0.55 -0.366667 -0.4125 
-0.55 -0.320833 -0.4125 
-0.55 -0.275 -0.4125 
-0.55 -0.4125 -0.4125 
-0.55 -0.366667 -0.4125 
-0.55 -0.320833 -0.4125 
-0.55 -0.275 -0.4125 
-0.55 -0.4125 -0.366667 
-0.55 -0.366667 -0.366667 
-0.55 -0.320833 -0.366667 
-0.55 -0.275 -0.366667 
-0.55 -0.4125 -0.320833 
-0.55 -0.366667 -0.320833 
-0.55 -0.320833 -0.320833 
-0.55 -0.275 -0.320833 
-0.55 -0.4125 -0.275 
-0.55 -0.366667 -0.275 
-0.55 -0.320833 -0.275 
-0.55 -0.275 -0.275 
-0.55 -0.4125 -0.275 
-0.55 -0.366667 -0.275 
-0.55 -0.320833 -0.275 
-0.55 -0.275 -0.275 
-0.55 -0.4125 -0.229167 
-0.55 -0.366667 -0.229167 
-0.55 -0.320833 -0.229167 
-0.55 -0.275 -0.229167 
-0.55 -0.4125 -0.183333 
-0.55 -0.366667 -0.183333 
-0.55 -0.320833 -0.183333 
-0.55 -0.275 -0.183333 
-0.55 -0.4125 -0.1375 
-0.55 -0.366667 -0.1375 
-0.55 -0.320833 -0.1375 
-0.55 -0.275 -0.1375 
-0.55 -0.4125 -0.1375 
-0.55 -0.366667 -0.1375 
-0.55 -0.320833 -0.1375 
-0.55 -0.275 -0.1375 
-0.55 -0.4125 -0.0916667 
-0.55 -0.366667 -0.0916667 
-0.55 -0.320833 -0.0916667 
-0.55 -0.275 -0.0916667 
-0.55 -0.4125 -0.0458333 
-0.55 -0.366667 -0.0458333 
-0.55 -0.320833 -0.0458333 
-0.55 -0.275 -0.0458333 
-0.55 -0.4125 0 
-0.55 -0.366667 0 
-0.55 -0.320833 0 
-0.55 -0.275 0 
-0.55 -0.4125 0 
-0.55 -0.366667 0 
-0.55 -0.320833 0 
-0.55 -0.275 0 
-0.55 -0.4125 0.0458333 
-0.55 -0.366667 0.0458333 
-0.55 -0.320833 0.0458333 
-0.55 -0.275 0.0458333 
-0.55 -0.4125 0.0916667 
-0.55 -0.366667 0.0916667 
-0.55 -0.320833 0.0916667 
-0.55 -0.275 0.0916667 
-0.55 -0.4125 0.1375 
-0.55 -0.366667 0.1375 
-0.55 -0.320833 0.1375 
-0.55 -0.275 0.1375 
-0.55 -0.4125 0.1375 
-0.55 -0.366667 0.1375 
-0.55 -0.320833 0.1375 
-0.55 -0.275 0.1375 
-0.55 -0.4125 0.183333 
-0.55 -0.366667 0.183333 
-0.55 -0.320833 0.183333 
-0.55 -0.275 0.183333 
-0.55 -0.4125 0.229167 
-0.55 -0.366667 0.229167 
-0.55 -0.320833 0.229167 
-0.55 -0.275 0.229167 
-0.55 -0.4125 0.275 
-0.55 -0.366667 0.275 
-0.55 -0.320833 0.275 
-0.55 -0.275 0.275 
-0.55 -0.4125 0.275 
-0.55 -0.366667 0.275 
-0.55 -0.320833 0.275 
-0.55 -0.275 0.275 
-0.55 -0.4125 0.320833 
-0.55 -0.366667 0.320833 
-0.55 -0.320833 0.320833 
-0.55 -0.275 0.320833 
-0.55 -0.4125 0.366667 
-0.55 -0.366667 0.366667 
-0.55 -0.320833 0.366667 
-0.55 -0.275 0.366667 
-0.55 -0.4125 0.4125 
-0.55 -0.366667 0.4125 
-0.55 -0.320833 0.4125 
-0.55 -0.275 0.4125 
-0.55 -0.4125 0.4125 
-0.55 -0.366667 0.4125 
-0.55 -0.320833 0.4125 
-0.55 -0.275 0.4125 
-0.55 -0.4125 0.458333 
-0.55 -0.366667 0.458333 
-0.55 -0.320833 0.458333 
-0.55 -0.275 0.458333 
-0.55 -0.4125 0.504167 
-0.55 -0.366667 0.504167 
-0.55 -0.320833 0.504167 
-0.55 -0.275 0.504167 
-0.55 -0.4125 0.55 
-0.55 -0.366667 0.55 
-0.55 -0.320833 0.55 
-0.55 -0.275 0.55 
-0.55 -0.275 -0.55 
-0.55 -0.229167 -0.55 
-0.55 -0.183333 -0.55 
-0.55 -0.1375 -0.55 
-0.55 -0.275 -0.504167 
-0.55 -0.229167 -0.504167 
-0.55 -0.183333 -0.504167 
-0.55 -0.1375 -0.504167 
-0.55 -0.275 -0.458333 
-0.55 -0.229167 -0.458333 
-0.55 -0.183333 -0.458333 
-0.55 -0.1375 -0.458333 
-0.55 -0.275 -0.4125 
-0.55 -0.229167 -0.4125 
-0.55 -0.183333 -0.4125 
-0.55 -0.1375 -0.4125 
-0.55 -0.275 -0.4125 
-0.55 -0.229167 -0.4125 
-0.55 -0.183333 -0.4125 
-0.55 -0.1375 -0.4125 
-0.55 -0.275 -0.366667 
-0.55 -0.229167 -0.366667 
-0.55 -0.183333 -0.366667 
-0.55 -0.1375 -0.366667 
-0.55 -0.275 -0.320833 
-0.55 -0.229167 -0.320833 
-0.55 -0.183333 -0.320833 
-0.55 -0.1375 -0.320833 
-0.55 -0.275 -0.275 
-0.55 -0.229167 -0.275 
-0.55 -0.183333 -0.275 
-0.55 -0.1375 -0.275 
-0.55 -0.275 -0.275 
-0.55 -0.229167 -0.275 
-0.55 -0.183333 -0.275 
-0.55 -0.1375 -0.275 
-0.55 -0.275 -0.229167 
-0.55 -0.229167 -0.229167 
-0.55 -0.183333 -0.229167 
-0.55 -0.1375 -0.229167 
-0.55 -0.275 -0.183333 
-0.55 -0.229167 -0.183333 
-0.55 -0.183333 -0.183333 
-0.55 -0.1375 -0.183333 
-0.55 -0.275 -0.1375 
-0.55 -0.229167 -0.1375 
-0.55 -0.183333 -0.1375 
-0.55 -0.1375 -0.1375 
-0.55 -0.275 -0.1375 
-0.55 -0.229167 -0.1375 
-0.55 -0.183333 -0.1375 
-0.55 -0.1375 -0.1375 
-0.55 -0.275 -0.0916667 
-0.55 -0.229167 -0.0916667 
-0.55 -0.183333 -0.0916667 
-0.55 -0.1375 -0.0916667 
-0.55 -0.275 -0.0458333 
-0.55 -0.229167 -0.0458333 
-0.55 -0.183333 -0.0458333 
-0.55 -0.1375 -0.0458333 
-0.55 -0.275 0 
-0.55 -0.229167 0 
-0.55 -0.183333 0 
-0.55 -0.1375 0 
-0.55 -0.275 0 
-0.55 -0.229167 0 
-0.55 -0.183333 0 
-0.55 -0.1375 0 
-0.55 -0.275 0.0458333 
-0.55 -0.229167 0.0458333 
-0.55 -0.183333 0.0458333 
-0.55 -0.1375 0.0458333 
-0.55 -0.275 0.0916667 
-0.55 -0.229167 0.0916667 
-0.55 -0.183333 0.0916667 
-0.55 -0.1375 0.0916667 
-0.55 -0.275 0.1375 
-0.55 -0.229167 0.1375 
-0.55 -0.183333 0.1375 
-0.55 -0.1375 0.1375 
-0.55 -0.275 0.1375 
-0.55 -0.229167 0.1375 
-0.55 -0.183333 0.1375 
-0.55 -0.1375 0.1375 
-0.55 -0.275 0.183333 
-0.55 -0.229167 0.183333 
-0.55 -0.183333 0.183333 
-0.55 -0.1375 0.183333 
-0.55 -0.275 0.229167 
-0.55 -0.229167 0.229167 
-0.55 -0.183333 0.229167 
-0.55 -0.1375 0.229167 
-0.55 -0.275 0.275 
-0.55 -0.229167 0.275 
-0.55 -0.183333 0.275 
-0.55 -0.1375 0.275 
-0.55 -0.275 0.275 
-0.55 -0.229167 0.275 
-0.55 -0.183333 0.275 
-0.55 -0.1375 0.275 
-0.55 -0.275 0.320833 
-0.55 -0.229167 0.320833 
-0.55 -0.183333 0.320833 
-0.55 -0.1375 0.320833 
-0.55 -0.275 0.366667 
-0.55 -0.229167 0.366667 
-0.55 -0.183333 0.366667 
-0.55 -0.1375 0.366667 
-0.55 -0.275 0.4125 
-0.55 -0.229167 0.4125 
-0.55 -0.183333 0.4125 
-0.55 -0.1375 0.4125 
-0.55 -0.275 0.4125 
-0.55 -0.229167 0.4125 
-0.55 -0.183333 0.4125 
-0.55 -0.1375 0.4125 
-0.55 -0.275 0.458333 
-0.55 -0.229167 0.458333 
-0.55 -0.183333 0.458333 
-0.55 -0.1375 0.458333 
-0.55 -0.275 0.504167 
-0.55 -0.229167 0.504167 
-0.55 -0.183333 0.504167 
-0.55 -0.1375 0.504167 
-0.55 -0.275 0.55 
-0.55 -0.229167 0.55 
-0.55 -0.183333 0.55 
-0.55 -0.1375 0.55 
-0.55 -0.1375 -0.55 
-0.55 -0.0916667 -0.55 
-0.55 -0.0458333 -0.55 
-0.55 0 -0.55 
-0.55 -0.1375 -0.504167 
-0.55 -0.0916667 -0.504167 
-0.55 -0.0458333 -0.504167 
-0.55 0 -0.504167 
-0.55 -0.1375 -0.458333 
-0.55 -0.0916667 -0.458333 
-0.55 -0.0458333 -0.458333 
-0.55 0 -0.458333 
-0.55 -0.1375 -0.4125 
-0.55 -0.0916667 -0.4125 
-0.55 -0.0458333 -0.4125 
-0.55 0 -0.4125 
-0.55 -0.1375 -0.4125 
-0.55 -0.0916667 -0.4125 
-0.55 -0.0458333 -0.4125 
-0.55 0 -0.4125 
-0.55 -0.1375 -0.366667 
-0.55 -0.0916667 -0.366667 
-0.55 -0.0458333 -0.366667 
-0.55 0 -0.366667 
-0.55 -0.1375 -0.320833 
-0.55 -0.0916667 -0.320833 
-0.55 -0.0458333 -0.320833 
-0.55 0 -0.320833 
-0.55 -0.1375 -0.275 
-0.55 -0.0916667 -0.275 
-0.55 -0.0458333 -0.275 
-0.55 0 -0.275 
-0.55 -0.1375 -0.275 
-0.55 -0.0916667 -0.275 
-0.55 -0.0458333 -0.275 
-0.55 0 -0.275 
-0.55 -0.1375 -0.229167 
-0.55 -0.0916667 -0.229167 
-0.55 -0.0458333 -0.229167 
-0.55 0 -0.229167 
-0.55 -0.1375 -0.183333 
-0.55 -0.0916667 -0.183333 
-0.55 -0.0458333 -0.183333 
-0.55 0 -0.183333 
-0.55 -0.1375 -0.1375 
-0.55 -0.0916667 -0.1375 
-0.55 -0.0458333 -0.1375 
-0.55 0 -0.1375 
-0.55 -0.1375 -0.1375 
-0.55 -0.0916667 -0.1375 
-0.55 -0.0458333 -0.1375 
-0.55 0 -0.1375 
-0.55 -0.1375 -0.0916667 
-0.55 -0.0916667 -0.0916667 
-0.55 -0.0458333 -0.0916667 
-0.55 0 -0.0916667 
-0.55 -0.1375 -0.0458333 
-0.55 -0.0916667 -0.0458333 
-0.55 -0.0458333 -0.0458333 
-0.55 0 -0.0458333 
-0.55 -0.1375 0 
-0.55 -0.0916667 0 
-0.55 -0.0458333 0 
-0.55 0 0 
-0.55 -0.1375 0 
-0.55 -0.0916667 0 
-0.55 -0.0458333 0 
-0.55 0 0 
-0.55 -0.1375 0.0458333 
-0.55 -0.0916667 0.0458333 
-0.55 -0.0458333 0.0458333 
-0.55 0 0.0458333 
-0.55 -0.1375 0.0916667 
-0.55 -0.0916667 0.0916667 
-0.55 -0.0458333 0.0916667 
-0.55 0 0.0916667 
-0.55 -0.1375 0.1375 
-0.55 -0.0916667 0.1375 
-0.55 -0.0458333 0.1375 
-0.55 0 0.1375 
-0.55 -0.1375 0.1375 
-0.55 -0.0916667 0.1375 
-0.55 -0.0458333 0.1375 
-0.55 0 0.1375 
-0.55 -0.1375 0.183333 
-0.55 -0.0916667 0.183333 
-0.55 -0.0458333 0.183333 
-0.55 0 0.183333 
-0.55 -0.1375 0.229167 
-0.55 -0.0916667 0.229167 
-0.55 -0.0458333 0.229167 
-0.55 0 0.229167 
-0.55 -0.1375 0.275 
-0.55 -0.0916667 0.275 
-0.55 -0.0458333 0.275 
-0.55 0 0.275 
-0.55 -0.1375 0.275 
-0.55 -0.0916667 0.275 
-0.55 -0.0458333 0.275 
-0.55 0 0.275 
-0.55 -0.1375 0.320833 
-0.55 -0.0916667 0.320833 
-0.55 -0.0458333 0.320833 
-0.55 0 0.320833 
-0.55 -0.1375 0.366667 
-0.55 -0.0916667 0.366667 
-0.55 -0.0458333 0.366667 
-0.55 0 0.366667 
-0.55 -0.1375 0.4125 
-0.55 -0.0916667 0.4125 
-0.55 -0.0458333 0.4125 
-0.55 0 0.4125 
-0.55 -0.1375 0.4125 
-0.55 -0.0916667 0.4125 
-0.55 -0.0458333 0.4125 
-0.55 0 0.4125 
-0.55 -0.1375 0.458333 
-0.55 -0.0916667 0.458333 
-0.55 -0.0458333 0.458333 
-0.55 0 0.458333 
-0.55 -0.1375 0.504167 
-0.55 -0.0916667 0.504167 
-0.55 -0.0458333 0.504167 
-0.55 0 0.504167 
-0.55 -0.1375 0.55 
-0.55 -0.0916667 0.55 
-0.55 -0.0458333 0.55 
-0.55 0 0.55 
-0.55 0 -0.55 
-0.55 0.0458333 -0.55 
-0.55 0.0916667 -0.55 
-0.55 0.1375 -0.55 
-0.55 0 -0.504167 
-0.55 0.0458333 -0.504167 
-0.55 0.0916667 -0.504167 
-0.55 0.1375 -0.504167 
-0.55 0 -0.458333 
-0.55 0.0458333 -0.458333 
-0.55 0.0916667 -0.458333 
-0.55 0.1375 -0.458333 
-0.55 0 -0.4125 
-0.55 0.0458333 -0.4125 
-0.55 0.0916667 -0.4125 
-0.55 0.1375 -0.4125 
-0.55 0 -0.4125 
-0.55 0.0458333 -0.4125 
-0.55 0.0916667 -0.4125 
-0.55 0.1375 -0.4125 
-0.55 0 -0.366667 
-0.55 0.0458333 -0.366667 
-0.55 0.0916667 -0.366667 
-0.55 0.1375 -0.366667 
-0.55 0 -0.320833 
-0.55 0.0458333 -0.320833 
-0.55 0.0916667 -0.320833 
-0.55 0.1375 -0.320833 
-0.55 0 -0.275 
-0.55 0.0458333 -0.275 
-0.55 0.0916667 -0.275 
-0.55 0.1375 -0.275 
-0.55 0 -0.275 
-0.55 0.0458333 -0.275 
-0.55 0.0916667 -0.275 
-0.55 0.1375 -0.275 
-0.55 0 -0.229167 
-0.55 0.0458333 -0.229167 
-0.55 0.0916667 -0.229167 
-0.55 0.1375 -0.229167 
-0.55 0 -0.183333 
-0.55 0.0458333 -0.183333 
-0.55 0.0916667 -0.183333 
-0.55 0.1375 -0.183333 
-0.55 0 -0.1375 
-0.55 0.0458333 -0.1375 
-0.55 0.0916667 -0.1375 
-0.55 0.1375 -0.1375 
-0.55 0 -0.1375 
-0.55 0.0458333 -0.1375 
-0.55 0.0916667 -0.1375 
-0.55 0.1375 -0.1375 
-0.55 0 -0.0916667 
-0.55 0.0458333 -0.0916667 
-0.55 0.0916667 -0.0916667 
-0.55 0.1375 -0.0916667 
-0.55 0 -0.0458333 
-0.55 0.0458333 -0.0458333 
-0.55 0.0916667 -0.0458333 
-0.55 0.1375 -0.0458333 
-0.55 0 0 
-0.55 0.0458333 0 
-0.55 0.0916667 0 
-0.55 0.1375 0 
-0.55 0 0 
-0.55 0.0458333 0 
-0.55 0.0916667 0 
-0.55 0.1375 0 
-0.55 0 0.0458333 
-0.55 0.0458333 0.0458333 
-0.55 0.0916667 0.0458333 
-0.55 0.1375 0.0458333 
-0.55 0 0.0916667 
-0.55 0.0458333 0.0916667 
-0.55 0.0916667 0.0916667 
-0.55 0.1375 0.0916667 
-0.55 0 0.1375 
-0.55 0.0458333 0.1375 
-0.55 0.0916667 0.1375 
-0.55 0.1375 0.1375 
-0.55 0 0.1375 
-0.55 0.0458333 0.1375 
-0.55 0.0916667 0.1375 
-0.55 0.1375 0.1375 
-0.55 0 0.183333 
-0.55 0.0458333 0.183333 
-0.55 0.0916667 0.183333 
-0.55 0.1375 0.183333 
-0.55 0 0.229167 
-0.55 0.0458333 0.229167 
-0.55 0.0916667 0.229167 
-0.55 0.1375 0.229167 
-0.55 0 0.275 
-0.55 0.0458333 0.275 
-0.55 0.0916667 0.275 
-0.55 0.1375 0.275 
-0.55 0 0.275 
-0.55 0.0458333 0.275 
-0.55 0.0916667 0.275 
-0.55 0.1375 0.275 
-0.55 0 0.320833 
-0.55 0.0458333 0.320833 
-0.55 0.0916667 0.320833 
-0.55 0.1375 0.320833 
-0.55 0 0.366667 
-0.55 0.0458333 0.366667 
-0.55 0.0916667 0.366667 
-0.55 0.1375 0.366667 
-0.55 0 0.4125 
-0.55 0.0458333 0.4125 
-0.55 0.0916667 0.4125 
-0.55 0.1375 0.4125 
-0.55 0 0.4125 
-0.55 0.0458333 0.4125 
-0.55 0.0916667 0.4125 
-0.55 0.1375 0.4125 
-0.55 0 0.458333 
-0.55 0.0458333 0.458333 
-0.55 0.0916667 0.458333 
-0.55 0.1375 0.458333 
-0.55 0 0.504167 
-0.55 0.0458333 0.504167 
-0.55 0.0916667 0.504167 
-0.55 0.1375 0.504167 
-0.55 0 0.55 
-0.55 0.0458333 0.55 
-0.55 0.0916667 0.55 
-0.55 0.1375 0.55 
-0.55 0.1375 -0.55 
-0.55 0.183333 -0.55 
-0.55 0.229167 -0.55 
-0.55 0.275 -0.55 
-0.55 0.1375 -0.504167 
-0.55 0.183333 -0.504167 
-0.55 0.229167 -0.504167 
-0.55 0.275 -0.504167 
-0.55 0.1375 -0.458333 
-0.55 0.183333 -0.458333 
-0.55 0.229167 -0.458333 
-0.55 0.275 -0.458333 
-0.55 0.1375 -0.4125 
-0.55 0.183333 -0.4125 
-0.55 0.229167 -0.4125 
-0.55 0.275 -0.4125 
-0.55 0.1375 -0.4125 
-0.55 0.183333 -0.4125 
-0.55 0.229167 -0.4125 
-0.55 0.275 -0.4125 
-0.55 0.1375 -0.366667 
-0.55 0.183333 -0.366667 
-0.55 0.229167 -0.366667 
-0.55 0.275 -0.366667 
-0.55 0.1375 -0.320833 
-0.55 0.183333 -0.320833 
-0.55 0.229167 -0.320833 
-0.55 0.275 -0.320833 
-0.55 0.1375 -0.275 
-0.55 0.183333 -0.275 
-0.55 0.229167 -0.275 
-0.55 0.275 -0.275 
-0.55 0.1375 -0.275 
-0.55 0.183333 -0.275 
-0.55 0.229167 -0.275 
-0.55 0.275 -0.275 
-0.55 0.1375 -0.229167 
-0.55 0.183333 -0.229167 
-0.55 0.229167 -0.229167 
-0.55 0.275 -0.229167 
-0.55 0.1375 -0.183333 
-0.55 0.183333 -0.183333 
-0.55 0.229167 -0.183333 
-0.55 0.275 -0.183333 
-0.55 0.1375 -0.1375 
-0.55 0.183333 -0.1375 
-0.55 0.229167 -0.1375 
-0.55 0.275 -0.1375 
-0.55 0.1375 -0.1375 
-0.55 0.183333 -0.1375 
-0.55 0.229167 -0.1375 
-0.55 0.275 -0.1375 
-0.55 0.1375 -0.0916667 
-0.55 0.183333 -0.0916667 
-0.55 0.229167 -0.0916667 
-0.55 0.275 -0.0916667 
-0.55 0.1375 -0.0458333 
-0.55 0.183333 -0.0458333 
-0.55 0.229167 -0.0458333 
-0.55 0.275 -0.0458333 
-0.55 0.1375 0 
-0.55 0.183333 0 
-0.55 0.229167 0 
-0.55 0.275 0 
-0.55 0.1375 0 
-0.55 0.183333 0 
-0.55 0.229167 0 
-0.55 0.275 0 
-0.55 0.1375 0.0458333 
-0.55 0.183333 0.0458333 
-0.55 0.229167 0.0458333 
-0.55 0.275 0.0458333 
-0.55 0.1375 0.0916667 
-0.55 0.183333 0.0916667 
-0.55 0.229167 0.0916667 
-0.55 0.275 0.0916667 
-0.55 0.1375 0.1375 
-0.55 0.183333 0.1375 
-0.55 0.229167 0.1375 
-0.55 0.275 0.1375 
-0.55 0.1375 0.1375 
-0.55 0.183333 0.1375 
-0.55 0.229167 0.1375 
-0.55 0.275 0.1375 
-0.55 0.1375 0.183333 
-0.55 0.183333 0.183333 
-0.55 0.229167 0.183333 
-0.55 0.275 0.183333 
-0.55 0.1375 0.229167 
-0.55 0.183333 0.229167 
-0.55 0.229167 0.229167 
-0.55 0.275 0.229167 
-0.55 0.1375 0.275 
-0.55 0.183333 0.275 
-0.55 0.229167 0.275 
-0.55 0.275 0.275 
-0.55 0.1375 0.275 
-0.55 0.183333 0.275 
-0.55 0.229167 0.275 
-0.55 0.275 0.275 
-0.55 0.1375 0.320833 
-0.55 0.183333 0.320833 
-0.55 0.229167 0.320833 
-0.55 0.275 0.320833 
-0.55 0.1375 0.366667 
-0.55 0.183333 0.366667 
-0.55 0.229167 0.366667 
-0.55 0.275 0.366667 
-0.55 0.1375 0.4125 
-0.55 0.183333 0.4125 
-0.55 0.229167 0.4125 
-0.55 0.275 0.4125 
-0.55 0.1375 0.4125 
-0.55 0.183333 0.4125 
-0.55 0.229167 0.4125 
-0.55 0.275 0.4125 
-0.55 0.1375 0.458333 
-0.55 0.183333 0.458333 
-0.55 0.229167 0.458333 
-0.55 0.275 0.458333 
-0.55 0.1375 0.504167 
-0.55 0.183333 0.504167 
-0.55 0.229167 0.504167 
-0.55 0.275 0.504167 
-0.55 0.1375 0.55 
-0.55 0.183333 0.55 
-0.55 0.229167 0.55 
-0.55 0.275 0.55 
-0.55 0.275 -0.55 
-0.55 0.320833 -0.55 
-0.55 0.366667 -0.55 
-0.55 0.4125 -0.55 
-0.55 0.275 -0.504167 
-0.55 0.320833 -0.504167 
-0.55 0.366667 -0.504167 
-0.55 0.4125 -0.504167 
-0.55 0.275 -0.458333 
-0.55 0.320833 -0.458333 
-0.55 0.366667 -0.458333 
-0.55 0.4125 -0.458333 
-0.55 0.275 -0.4125 
-0.55 0.320833 -0.4125 
-0.55 0.366667 -0.4125 
-0.55 0.4125 -0.4125 
-0.55 0.275 -0.4125 
-0.55 0.320833 -0.4125 
-0.55 0.366667 -0.4125 
-0.55 0.4125 -0.4125 
-0.55 0.275 -0.366667 
-0.55 0.320833 -0.366667 
-0.55 0.366667 -0.366667 
-0.55 0.4125 -0.366667 
-0.55 0.275 -0.320833 
-0.55 0.320833 -0.320833 
-0.55 0.366667 -0.320833 
-0.55 0.4125 -0.320833 
-0.55 0.275 -0.275 
-0.55 0.320833 -0.275 
-0.55 0.366667 -0.275 
-0.55 0.4125 -0.275 
-0.55 0.275 -0.275 
-0.55 0.320833 -0.275 
-0.55 0.366667 -0.275 
-0.55 0.4125 -0.275 
-0.55 0.275 -0.229167 
-0.55 0.320833 -0.229167 
-0.55 0.366667 -0.229167 
-0.55 0.4125 -0.229167 
-0.55 0.275 -0.183333 
-0.55 0.320833 -0.183333 
-0.55 0.366667 -0.183333 
-0.55 0.4125 -0.183333 
-0.55 0.275 -0.1375 
-0.55 0.320833 -0.1375 
-0.55 0.366667 -0.1375 
-0.55 0.4125 -0.1375 
-0.55 0.275 -0.1375 
-0.55 0.320833 -0.1375 
-0.55 0.366667 -0.1375 
-0.55 0.4125 -0.1375 
-0.55 0.275 -0.0916667 
-0.55 0.320833 -0.0916667 
-0.55 0.366667 -0.0916667 
-0.55 0.4125 -0.0916667 
-0.55 0.275 -0.0458333 
-0.55 0.320833 -0.0458333 
-0.55 0.366667 -0.0458333 
-0.55 0.4125 -0.0458333 
-0.55 0.275 0 
-0.55 0.320833 0 
-0.55 0.366667 0 
-0.55 0.4125 0 
-0.55 0.275 0 
-0.55 0.320833 0 
-0.55 0.366667 0 
-0.55 0.4125 0 
-0.55 0.275 0.0458333 
-0.55 0.320833 0.0458333 
-0.55 0.366667 0.0458333 
-0.55 0.4125 0.0458333 
-0.55 0.275 0.0916667 
-0.55 0.320833 0.0916667 
-0.55 0.366667 0.0916667 
-0.55 0.4125 0.0916667 
-0.55 0.275 0.1375 
-0.55 0.320833 0.1375 
-0.55 0.366667 0.1375 
-0.55 0.4125 0.1375 
-0.55 0.275 0.1375 
-0.55 0.320833 0.1375 
-0.55 0.366667 0.1375 
-0.55 0.4125 0.1375 
-0.55 0.275 0.183333 
-0.55 0.320833 0.183333 
-0.55 0.366667 0.183333 
-0.55 0.4125 0.183333 
-0.55 0.275 0.229167 
-0.55 0.320833 0.229167 
-0.55 0.366667 0.229167 
-0.55 0.4125 0.229167 
-0.55 0.275 0.275 
-0.55 0.320833 0.275 
-0.55 0.366667 0.275 
-0.55 0.4125 0.275 
-0.55 0.275 0.275 
-0.55 0.320833 0.275 
-0.55 0.366667 0.275 
-0.55 0.4125 0.275 
-0.55 0.275 0.320833 
-0.55 0.320833 0.320833 
-0.55 0.366667 0.320833 
-0.55 0.4125 0.320833 
-0.55 0.275 0.366667 
-0.55 0.320833 0.366667 
-0.55 0.366667 0.366667 
-0.55 0.4125 0.366667 
-0.55 0.275 0.4125 
-0.55 0.320833 0.4125 
-0.55 0.366667 0.4125 
-0.55 0.4125 0.4125 
-0.55 0.275 0.4125 
-0.55 0.320833 0.4125 
-0.55 0.366667 0.4125 
-0.55 0.4125 0.4125 
-0.55 0.275 0.458333 
-0.55 0.320833 0.458333 
-0.55 0.366667 0.458333 
-0.55 0.4125 0.458333 
-0.55 0.275 0.504167 
-0.55 0.320833 0.504167 
-0.55 0.366667 0.504167 
-0.55 0.4125 0.504167 
-0.55 0.275 0.55 
-0.55 0.320833 0.55 
-0.55 0.366667 0.55 
-0.55 0.4125 0.55 
-0.55 0.4125 -0.55 
-0.55 0.458333 -0.55 
-0.55 0.504167 -0.55 
-0.55 0.55 -0.55 
-0.55 0.4125 -0.504167 
-0.55 0.458333 -0.504167 
-0.55 0.504167 -0.504167 
-0.55 0.55 -0.504167 
-0.55 0.4125 -0.458333 
-0.55 0.458333 -0.458333 
-0.55 0.504167 -0.458333 
-0.55 0.55 -0.458333 
-0.55 0.4125 -0.4125 
-0.55 0.458333 -0.4125 
-0.55 0.504167 -0.4125 
-0.55 0.55 -0.4125 
-0.55 0.4125 -0.4125 
-0.55 0.458333 -0.4125 
-0.55 0.504167 -0.4125 
-0.55 0.55 -0.4125 
-0.55 0.4125 -0.366667 
-0.55 0.458333 -0.366667 
-0.55 0.504167 -0.366667 
-0.55 0.55 -0.366667 
-0.55 0.4125 -0.320833 
-0.55 0.458333 -0.320833 
-0.55 0.504167 -0.320833 
-0.55 0.55 -0.320833 
-0.55 0.4125 -0.275 
-0.55 0.458333 -0.275 
-0.55 0.504167 -0.275 
-0.55 0.55 -0.275 
-0.55 0.4125 -0.275 
-0.55 0.458333 -0.275 
-0.55 0.504167 -0.275 
-0.55 0.55 -0.275 
-0.55 0.4125 -0.229167 
-0.55 0.458333 -0.229167 
-0.55 0.504167 -0.229167 
-0.55 0.55 -0.229167 
-0.55 0.4125 -0.183333 
-0.55 0.458333 -0.183333 
-0.55 0.504167 -0.183333 
-0.55 0.55 -0.183333 
-0.55 0.4125 -0.1375 
-0.55 0.458333 -0.1375 
-0.55 0.504167 -0.1375 
-0.55 0.55 -0.1375 
-0.55 0.4125 -0.1375 
-0.55 0.458333 -0.1375 
-0.55 0.504167 -0.1375 
-0.55 0.55 -0.1375 
-0.55 0.4125 -0.0916667 
-0.55 0.458333 -0.0916667 
-0.55 0.504167 -0.0916667 
-0.55 0.55 -0.0916667 
-0.55 0.4125 -0.0458333 
-0.55 0.458333 -0.0458333 
-0.55 0.504167 -0.0458333 
-0.55 0.55 -0.0458333 
-0.55 0.4125 0 
-0.55 0.458333 0 
-0.55 0.504167 0 
-0.55 0.55 0 
-0.55 0.4125 0 
-0.55 0.458333 0 
-0.55 0.504167 0 
-0.55 0.55 0 
-0.55 0.4125 0.0458333 
-0.55 0.458333 0.0458333 
-0.55 0.504167 0.0458333 
-0.55 0.55 0.0458333 
-0.55 0.4125 0.0916667 
-0.55 0.458333 0.0916667 
-0.55 0.504167 0.0916667 
-0.55 0.55 0.0916667 
-0.55 0.4125 0.1375 
-0.55 0.458333 0.1375 
-0.55 0.504167 0.1375 
-0.55 0.55 0.1375 
-0.55 0.4125 0.1375 
-0.55 0.458333 0.1375 
-0.55 0.504167 0.1375 
-0.55 0.55 0.1375 
-0.55 0.4125 0.183333 
-0.55 0.458333 0.183333 
-0.55 0.504167 0.183333 
-0.55 0.55 0.183333 
-0.55 0.4125 0.229167 
-0.55 0.458333 0.229167 
-0.55 0.504167 0.229167 
-0.55 0.55 0.229167 
-0.55 0.4125 0.275 
-0.55 0.458333 0.275 
-0.55 0.504167 0.275 
-0.55 0.55 0.275 
-0.55 0.4125 0.275 
-0.55 0.458333 0.275 
-0.55 0.504167 0.275 
-0.55 0.55 0.275 
-0.55 0.4125 0.320833 
-0.55 0.458333 0.320833 
-0.55 0.504167 0.320833 
-0.55 0.55 0.320833 
-0.55 0.4125 0.366667 
-0.55 0.458333 0.366667 
-0.55 0.504167 0.366667 
-0.55 0.55 0.366667 
-0.55 0.4125 0.4125 
-0.55 0.458333 0.4125 
-0.55 0.504167 0.4125 
-0.55 0.55 0.4125 
-0.55 0.4125 0.4125 
-0.55 0.458333 0.4125 
-0.55 0.504167 0.4125 
-0.55 0.55 0.4125 
-0.55 0.4125 0.458333 
-0.55 0.458333 0.458333 
-0.55 0.504167 0.458333 
-0.55 0.55 0.458333 
-0.55 0.4125 0.504167 
-0.55 0.458333 0.504167 
-0.55 0.504167 0.504167 
-0.55 0.55 0.504167 
-0.55 0.4125 0.55 
-0.55 0.458333 0.55 
-0.55 0.504167 0.55 
-0.55 0.55 0.55 
CELLS 64 1088

16	0	3	15	12	1	2	7	11	13	14	4	8	5	6	9	10
16	16	19	31	28	17	18	23	27	29	30	20	24	21	22	25	26
16	32	35	47	44	33	34	39	43	45	46	36	40	37	38	41	42
16	48	51	63	60	49	50	55	59	61	62	52	56	53	54	57	58
16	64	67	79	76	65	66	71	75	77	78	68	72	69	70	73	74
16	80	83	95	92	81	82	87	91	93	94	84	88	85	86	89	90
16	96	99	111	108	97	98	103	107	109	110	100	104	101	102	105	106
16	112	115	127	124	113	114	119	123	125	126	116	120	117	118	121	122
16	128	131	143	140	129	130	135	139	141	142	132	136	133	134	137	138
16	144	147	159	156	145	146	151	155	157	158	148	152	149	150	153	154
16	160	163	175	172	161	162	167	171	173	174	164	168	165	166	169	170
16	176	179	191	188	177	178	183	187	189	190	180	184	181	182	185	186
16	192	195	207	204	193	194	199	203	205	206	196	200	197	198	201	202
16	208	211	223	220	209	210	215	219	221	222	212	216	213	214	217	218
16	224	227	239	236	225	226	231	235	237	238	228	232	229	230	233	234
16	240	243	255	252	241	242	247	251	253	254	244	248	245	246	249	250
16	256	259	271	268	257	258	263	267	269	270	260	264	261	262	265	266
16	272	275	287	284	273	274	279	283	285	286	276	280	277	278	281	282
16	288	291	303	300	289	290	295	299	301	302	292	296	293	294	297	298
16	304	307	319	316	305	306	311	315	317	318	308	312	309	310	313	314
16	320	323	335	332	321	322	327	331	333	334	324	328	325	326	329	330
16	336	339	351	348	337	338	343	347	349	350	340	344	341	342	345	346
16	352	355	367	364	353	354	359	363	365	366	356	360	357	358	361	362
16	368	371	383	380	369	370	375	379	381	382	372	376	373	374	377	378
16	384	387	399	396	385	386	391	395	397	398	388	392	389	390	393	394
16	400	403	415	412	401	402	407	411	413	414	404	408	405	406	409	410
16	416	419	431	428	417	418	423	427	429	430	420	424	421	422	425	426
16	432	435	447	444	433	434	439	443	445	446	436	440	437	438	441	442
16	448	451	463	460	449	450	455	459	461	462	452	456	453	454	457	458
16	464	467	479	476	465	466	471	475	477	478	468	472	469	470	473	474
16	480	483	495	492	481	482	487	491	493	494	484	488	485	486	489	490
16	496	499	511	508	497	498	503	507	509	510	500	504	501	502	505	506
16	512	515	527	524	513	514	519	523	525	526	516	520	517	518	521	522
16	528	531	543	540	529	530	535	539	541	542	532	536	533	534	537	538
16	544	547	559	556	545	546	551	555	557	558	548	552	549	550	553	554
16	560	563	575	572	561	562	567	571	573	574	564	568	565	566	569	570
16	576	579	591	588	577	578	583	587	589	590	580	584	581	582	585	586
16	592	595	607	604	593	594	599	603	605	606	596	600	597	598	601	602
16	608	611	623	620	609	610	615	619	621	622	612	616	613	614	617	618
16	624	627	639	636	625	626	631	635	637	638	628	632	629	630	633	634
16	640	643	655	652	641	642	647	651	653	654	644	648	645	646	649	650
16	656	659	671	668	657	658	663	667	669	670	660	664	661	662	665	666
16	672	675	687	684	673	674	679	683	685	686	676	680	677	678	681	682
16	688	691	703	700	689	690	695	699	701	702	692	696	693	694	697	698
16	704	707	719	716	705	706	711	715	717	718	708	712	709	710	713	714
16	720	723	735	732	721	722	727	731	733	734	724	728	725	726	729	730
16	736	739	751	748	737	738	743	747	749	750	740	744	741	742	745	746
16	752	755	767	764	753	754	759	763	765	766	756	760	757	758	761	762
16	768	771	783	780	769	770	775	779	781	782	772	776	773	774	777	778
16	784	787	799	796	785	786	791	795	797	798	788	792	789	790	793	794
16	800	803	815	812	801	802	807	811	813	814	804	808	805	806	809	810
16	816	819	831	828	817	818	823	827	829	830	820	824	821	822	825	826
16	832	835	847	844	833	834	839	843	845	846	836	840	837	838	841	842
16	848	851	863	860	849	850	855	859	861	862	852	856	853	854	857	858
16	864	867	879	876	865	866	871	875	877	878	868	872	869	870	873	874
16	880	883	895	892	881	882	887	891	893	894	884	888	885	886	889	890
16	896	899	911	908	897	898	903	907	909	910	900	904	901	902	905	906
16	912	915	927	924	913	914	919	923	925	926	916	920	917	918	921	922
16	928	931	943	940	929	930	935	939	941	942	932	936	933	934	937	938
16	944	947	959	956	945	946	951	955	957	958	948	952	949	950	953	954
16	960	963	975	972	961	962	967	971	973	974	964	968	965	966	969	970
16	976	979	991	988	977	978	983	987	989	990	980	984	981	982	985	986
16	992	995	1007	1004	993	994	999	1003	1005	1006	996	1000	997	998	1001	1002
16	1008	1011	1023	1020	1009	1010	1015	1019	1021	1022	1012	1016	1013	1014	1017	1018

CELL_TYPES 64
 70
 70
 70
 70
 70
 70
 70
 70
 70
 70
 70
 70
 70
 70
 70
 70
 70
 70
 70
 70
 70
 70
 70
 70
 70
 70
 70
 70
 70
 70
 70
 70
 70
 70
 70
 70
 70
 70
 70
 70
 70
 70
 70
 70
 70
 70
 70
 70
 70
 70
 70
 70
 70
 70
 70
 70
 70
 70
 70
 70
 70
 70
 70
 70
CELL_DATA 64
SCALARS fe_degrees double 1
LOOKUP_TABLE default
 1 1 1 1 1 1 1 1 1 1 1 1 1 1 1 1 1 1 1 1 1 1 1 1 1 1 1 1 1 1 1 1 1 1 1 1 1 1 1 1 1 1 1 1 1 1 1 1 1 1 1 1 1 1 1 1 1 1 1 1 1 1 1 1
SCALARS dofs_per_cell double 1
LOOKUP_TABLE default
 8 10 10 10 10 10 10 8 10 12 12 12 12 12 12 10 10 12 12 12 12 12 12 10 10 12 12 12 12 12 12 10 10 12 12 12 12 12 12 10 10 12 12 12 12 12 12 10 10 12 12 12 12 12 12 10 8 10 10 10 10 10 10 8
SCALARS abs_qoi_error double 1
LOOKUP_TABLE default
 1.34819e-05 5.35037e-05 3.59088e-05 1.47591e-05 1.47556e-05 3.59112e-05 5.35195e-05 1.34807e-05 1.56936e-05 4.33423e-06 1.73261e-06 8.78498e-07 8.80609e-07 1.73316e-06 4.34588e-06 1.56945e-05 1.9474e-05 3.43664e-06 1.06387e-06 5.79407e-07 5.80632e-07 1.0637e-06 3.43903e-06 1.94741e-05 2.43893e-05 4.97361e-07 2.93642e-07 1.0048e-06 1.00535e-06 2.91212e-07 4.90476e-07 2.43893e-05 2.43684e-05 4.98015e-07 2.97829e-07 1.00151e-06 1.00206e-06 2.95474e-07 4.91267e-07 2.43683e-05 1.94569e-05 3.45182e-06 1.07109e-06 5.55004e-07 5.56219e-07 1.07084e-06 3.45409e-06 1.9457e-05 1.56863e-05 4.25958e-06 1.71753e-06 9.39573e-07 9.41678e-07 1.71816e-06 4.27132e-06 1.56873e-05 1.35244e-05 5.33698e-05 3.57947e-05 1.4854e-05 1.48505e-05 3.57972e-05 5.33856e-05 1.35232e-05

