# vtk DataFile Version 3.0
# File generated by the BrokkrIE Library (By Jake J. Harmon) on Thu Aug  8 13:54:25 2024

ASCII
DATASET UNSTRUCTURED_GRID

POINTS 2400 double
-0.451701 0.451701 -0.451701 
-0.471691 0.408799 -0.471691 
-0.491117 0.360152 -0.491117 
-0.509279 0.305567 -0.509279 
-0.471691 0.471691 -0.408799 
-0.494594 0.428648 -0.428648 
-0.517129 0.379228 -0.448179 
-0.538463 0.323078 -0.466668 
-0.491117 0.491117 -0.360152 
-0.517129 0.448179 -0.379228 
-0.543056 0.398241 -0.398241 
-0.567922 0.340753 -0.416476 
-0.509279 0.509279 -0.305567 
-0.538463 0.466668 -0.323078 
-0.567922 0.416476 -0.340753 
-0.596551 0.35793 -0.35793 
-0.509279 0.509279 -0.305567 
-0.538463 0.466668 -0.323078 
-0.567922 0.416476 -0.340753 
-0.596551 0.35793 -0.35793 
-0.525355 0.525355 -0.245166 
-0.557572 0.483229 -0.2602 
-0.590479 0.433018 -0.275557 
-0.622858 0.373715 -0.290667 
-0.538463 0.538463 -0.179488 
-0.573318 0.496876 -0.191106 
-0.609279 0.446804 -0.203093 
-0.645043 0.387026 -0.215014 
-0.547768 0.547768 -0.109554 
-0.584589 0.506643 -0.116918 
-0.622858 0.456762 -0.124572 
-0.661222 0.396733 -0.132244 
-0.547768 0.547768 -0.109554 
-0.584589 0.506643 -0.116918 
-0.622858 0.456762 -0.124572 
-0.661222 0.396733 -0.132244 
-0.552605 0.552605 -0.0368403 
-0.590479 0.511748 -0.0393653 
-0.629997 0.461997 -0.0419998 
-0.669782 0.401869 -0.0446522 
-0.552605 0.552605 0.0368403 
-0.590479 0.511748 0.0393653 
-0.629997 0.461997 0.0419998 
-0.669782 0.401869 0.0446522 
-0.547768 0.547768 0.109554 
-0.584589 0.506643 0.116918 
-0.622858 0.456762 0.124572 
-0.661222 0.396733 0.132244 
-0.547768 0.547768 0.109554 
-0.584589 0.506643 0.116918 
-0.622858 0.456762 0.124572 
-0.661222 0.396733 0.132244 
-0.538463 0.538463 0.179488 
-0.573318 0.496876 0.191106 
-0.609279 0.446804 0.203093 
-0.645043 0.387026 0.215014 
-0.525355 0.525355 0.245166 
-0.557572 0.483229 0.2602 
-0.590479 0.433018 0.275557 
-0.622858 0.373715 0.290667 
-0.509279 0.509279 0.305567 
-0.538463 0.466668 0.323078 
-0.567922 0.416476 0.340753 
-0.596551 0.35793 0.35793 
-0.509279 0.509279 0.305567 
-0.538463 0.466668 0.323078 
-0.567922 0.416476 0.340753 
-0.596551 0.35793 0.35793 
-0.491117 0.491117 0.360152 
-0.517129 0.448179 0.379228 
-0.543056 0.398241 0.398241 
-0.567922 0.340753 0.416476 
-0.471691 0.471691 0.408799 
-0.494594 0.428648 0.428648 
-0.517129 0.379228 0.448179 
-0.538463 0.323078 0.466668 
-0.451701 0.451701 0.451701 
-0.471691 0.408799 0.471691 
-0.491117 0.360152 0.491117 
-0.509279 0.305567 0.509279 
-0.509279 0.305567 -0.509279 
-0.525355 0.245166 -0.525355 
-0.538463 0.179488 -0.538463 
-0.547768 0.109554 -0.547768 
-0.538463 0.323078 -0.466668 
-0.557572 0.2602 -0.483229 
-0.573318 0.191106 -0.496876 
-0.584589 0.116918 -0.506643 
-0.567922 0.340753 -0.416476 
-0.590479 0.275557 -0.433018 
-0.609279 0.203093 -0.446804 
-0.622858 0.124572 -0.456762 
-0.596551 0.35793 -0.35793 
-0.622858 0.290667 -0.373715 
-0.645043 0.215014 -0.387026 
-0.661222 0.132244 -0.396733 
-0.596551 0.35793 -0.35793 
-0.622858 0.290667 -0.373715 
-0.645043 0.215014 -0.387026 
-0.661222 0.132244 -0.396733 
-0.622858 0.373715 -0.290667 
-0.652983 0.304725 -0.304725 
-0.678684 0.226228 -0.316719 
-0.697605 0.139521 -0.325549 
-0.645043 0.387026 -0.215014 
-0.678684 0.316719 -0.226228 
-0.707679 0.235893 -0.235893 
-0.729211 0.145842 -0.24307 
-0.661222 0.396733 -0.132244 
-0.697605 0.325549 -0.139521 
-0.729211 0.24307 -0.145842 
-0.752835 0.150567 -0.150567 
-0.661222 0.396733 -0.132244 
-0.697605 0.325549 -0.139521 
-0.729211 0.24307 -0.145842 
-0.752835 0.150567 -0.150567 
-0.669782 0.401869 -0.0446522 
-0.707679 0.33025 -0.0471786 
-0.74074 0.246913 -0.0493827 
-0.765542 0.153108 -0.0510361 
-0.669782 0.401869 0.0446522 
-0.707679 0.33025 0.0471786 
-0.74074 0.246913 0.0493827 
-0.765542 0.153108 0.0510361 
-0.661222 0.396733 0.132244 
-0.697605 0.325549 0.139521 
-0.729211 0.24307 0.145842 
-0.752835 0.150567 0.150567 
-0.661222 0.396733 0.132244 
-0.697605 0.325549 0.139521 
-0.729211 0.24307 0.145842 
-0.752835 0.150567 0.150567 
-0.645043 0.387026 0.215014 
-0.678684 0.316719 0.226228 
-0.707679 0.235893 0.235893 
-0.729211 0.145842 0.24307 
-0.622858 0.373715 0.290667 
-0.652983 0.304725 0.304725 
-0.678684 0.226228 0.316719 
-0.697605 0.139521 0.325549 
-0.596551 0.35793 0.35793 
-0.622858 0.290667 0.373715 
-0.645043 0.215014 0.387026 
-0.661222 0.132244 0.396733 
-0.596551 0.35793 0.35793 
-0.622858 0.290667 0.373715 
-0.645043 0.215014 0.387026 
-0.661222 0.132244 0.396733 
-0.567922 0.340753 0.416476 
-0.590479 0.275557 0.433018 
-0.609279 0.203093 0.446804 
-0.622858 0.124572 0.456762 
-0.538463 0.323078 0.466668 
-0.557572 0.2602 0.483229 
-0.573318 0.191106 0.496876 
-0.584589 0.116918 0.506643 
-0.509279 0.305567 0.509279 
-0.525355 0.245166 0.525355 
-0.538463 0.179488 0.538463 
-0.547768 0.109554 0.547768 
-0.547768 0.109554 -0.547768 
-0.552605 0.0368403 -0.552605 
-0.552605 -0.0368403 -0.552605 
-0.547768 -0.109554 -0.547768 
-0.584589 0.116918 -0.506643 
-0.590479 0.0393653 -0.511748 
-0.590479 -0.0393653 -0.511748 
-0.584589 -0.116918 -0.506643 
-0.622858 0.124572 -0.456762 
-0.629997 0.0419998 -0.461997 
-0.629997 -0.0419998 -0.461997 
-0.622858 -0.124572 -0.456762 
-0.661222 0.132244 -0.396733 
-0.669782 0.0446522 -0.401869 
-0.669782 -0.0446522 -0.401869 
-0.661222 -0.132244 -0.396733 
-0.661222 0.132244 -0.396733 
-0.669782 0.0446522 -0.401869 
-0.669782 -0.0446522 -0.401869 
-0.661222 -0.132244 -0.396733 
-0.697605 0.139521 -0.325549 
-0.707679 0.0471786 -0.33025 
-0.707679 -0.0471786 -0.33025 
-0.697605 -0.139521 -0.325549 
-0.729211 0.145842 -0.24307 
-0.74074 0.0493827 -0.246913 
-0.74074 -0.0493827 -0.246913 
-0.729211 -0.145842 -0.24307 
-0.752835 0.150567 -0.150567 
-0.765542 0.0510361 -0.153108 
-0.765542 -0.0510361 -0.153108 
-0.752835 -0.150567 -0.150567 
-0.752835 0.150567 -0.150567 
-0.765542 0.0510361 -0.153108 
-0.765542 -0.0510361 -0.153108 
-0.752835 -0.150567 -0.150567 
-0.765542 0.153108 -0.0510361 
-0.778915 0.0519277 -0.0519277 
-0.778915 -0.0519277 -0.0519277 
-0.765542 -0.153108 -0.0510361 
-0.765542 0.153108 0.0510361 
-0.778915 0.0519277 0.0519277 
-0.778915 -0.0519277 0.0519277 
-0.765542 -0.153108 0.0510361 
-0.752835 0.150567 0.150567 
-0.765542 0.0510361 0.153108 
-0.765542 -0.0510361 0.153108 
-0.752835 -0.150567 0.150567 
-0.752835 0.150567 0.150567 
-0.765542 0.0510361 0.153108 
-0.765542 -0.0510361 0.153108 
-0.752835 -0.150567 0.150567 
-0.729211 0.145842 0.24307 
-0.74074 0.0493827 0.246913 
-0.74074 -0.0493827 0.246913 
-0.729211 -0.145842 0.24307 
-0.697605 0.139521 0.325549 
-0.707679 0.0471786 0.33025 
-0.707679 -0.0471786 0.33025 
-0.697605 -0.139521 0.325549 
-0.661222 0.132244 0.396733 
-0.669782 0.0446522 0.401869 
-0.669782 -0.0446522 0.401869 
-0.661222 -0.132244 0.396733 
-0.661222 0.132244 0.396733 
-0.669782 0.0446522 0.401869 
-0.669782 -0.0446522 0.401869 
-0.661222 -0.132244 0.396733 
-0.622858 0.124572 0.456762 
-0.629997 0.0419998 0.461997 
-0.629997 -0.0419998 0.461997 
-0.622858 -0.124572 0.456762 
-0.584589 0.116918 0.506643 
-0.590479 0.0393653 0.511748 
-0.590479 -0.0393653 0.511748 
-0.584589 -0.116918 0.506643 
-0.547768 0.109554 0.547768 
-0.552605 0.0368403 0.552605 
-0.552605 -0.0368403 0.552605 
-0.547768 -0.109554 0.547768 
-0.547768 -0.109554 -0.547768 
-0.538463 -0.179488 -0.538463 
-0.525355 -0.245166 -0.525355 
-0.509279 -0.305567 -0.509279 
-0.584589 -0.116918 -0.506643 
-0.573318 -0.191106 -0.496876 
-0.557572 -0.2602 -0.483229 
-0.538463 -0.323078 -0.466668 
-0.622858 -0.124572 -0.456762 
-0.609279 -0.203093 -0.446804 
-0.590479 -0.275557 -0.433018 
-0.567922 -0.340753 -0.416476 
-0.661222 -0.132244 -0.396733 
-0.645043 -0.215014 -0.387026 
-0.622858 -0.290667 -0.373715 
-0.596551 -0.35793 -0.35793 
-0.661222 -0.132244 -0.396733 
-0.645043 -0.215014 -0.387026 
-0.622858 -0.290667 -0.373715 
-0.596551 -0.35793 -0.35793 
-0.697605 -0.139521 -0.325549 
-0.678684 -0.226228 -0.316719 
-0.652983 -0.304725 -0.304725 
-0.622858 -0.373715 -0.290667 
-0.729211 -0.145842 -0.24307 
-0.707679 -0.235893 -0.235893 
-0.678684 -0.316719 -0.226228 
-0.645043 -0.387026 -0.215014 
-0.752835 -0.150567 -0.150567 
-0.729211 -0.24307 -0.145842 
-0.697605 -0.325549 -0.139521 
-0.661222 -0.396733 -0.132244 
-0.752835 -0.150567 -0.150567 
-0.729211 -0.24307 -0.145842 
-0.697605 -0.325549 -0.139521 
-0.661222 -0.396733 -0.132244 
-0.765542 -0.153108 -0.0510361 
-0.74074 -0.246913 -0.0493827 
-0.707679 -0.33025 -0.0471786 
-0.669782 -0.401869 -0.0446522 
-0.765542 -0.153108 0.0510361 
-0.74074 -0.246913 0.0493827 
-0.707679 -0.33025 0.0471786 
-0.669782 -0.401869 0.0446522 
-0.752835 -0.150567 0.150567 
-0.729211 -0.24307 0.145842 
-0.697605 -0.325549 0.139521 
-0.661222 -0.396733 0.132244 
-0.752835 -0.150567 0.150567 
-0.729211 -0.24307 0.145842 
-0.697605 -0.325549 0.139521 
-0.661222 -0.396733 0.132244 
-0.729211 -0.145842 0.24307 
-0.707679 -0.235893 0.235893 
-0.678684 -0.316719 0.226228 
-0.645043 -0.387026 0.215014 
-0.697605 -0.139521 0.325549 
-0.678684 -0.226228 0.316719 
-0.652983 -0.304725 0.304725 
-0.622858 -0.373715 0.290667 
-0.661222 -0.132244 0.396733 
-0.645043 -0.215014 0.387026 
-0.622858 -0.290667 0.373715 
-0.596551 -0.35793 0.35793 
-0.661222 -0.132244 0.396733 
-0.645043 -0.215014 0.387026 
-0.622858 -0.290667 0.373715 
-0.596551 -0.35793 0.35793 
-0.622858 -0.124572 0.456762 
-0.609279 -0.203093 0.446804 
-0.590479 -0.275557 0.433018 
-0.567922 -0.340753 0.416476 
-0.584589 -0.116918 0.506643 
-0.573318 -0.191106 0.496876 
-0.557572 -0.2602 0.483229 
-0.538463 -0.323078 0.466668 
-0.547768 -0.109554 0.547768 
-0.538463 -0.179488 0.538463 
-0.525355 -0.245166 0.525355 
-0.509279 -0.305567 0.509279 
-0.509279 -0.305567 -0.509279 
-0.491117 -0.360152 -0.491117 
-0.471691 -0.408799 -0.471691 
-0.451701 -0.451701 -0.451701 
-0.538463 -0.323078 -0.466668 
-0.517129 -0.379228 -0.448179 
-0.494594 -0.428648 -0.428648 
-0.471691 -0.471691 -0.408799 
[...]
CELL_DATA 150
SCALARS fe_degrees double 1
LOOKUP_TABLE default
 1 1 1 1 1 1 1 1 1 1 1 1 1 1 1 1 1 1 1 1 1 1 1 1 1 1 1 1 1 1 1 1 1 1 1 1 1 1 1 1 1 1 1 1 1 1 1 1 1 1 1 1 1 1 1 1 1 1 1 1 1 1 1 1 1 1 1 1 1 1 1 1 1 1 1 1 1 1 1 1 1 1 1 1 1 1 1 1 1 1 1 1 1 1 1 1 1 1 1 1 1 1 1 1 1 1 1 1 1 1 1 1 1 1 1 1 1 1 1 1 1 1 1 1 1 1 1 1 1 1 1 1 1 1 1 1 1 1 1 1 1 1 1 1 1 1 1 1 1 1
SCALARS dofs_per_cell double 1
LOOKUP_TABLE default
 12 12 12 12 12 12 12 12 12 12 12 12 12 12 12 12 12 12 12 12 12 12 12 12 12 12 12 12 12 12 12 12 12 12 12 12 12 12 12 12 12 12 12 12 12 12 12 12 12 12 12 12 12 12 12 12 12 12 12 12 12 12 12 12 12 12 12 12 12 12 12 12 12 12 12 12 12 12 12 12 12 12 12 12 12 12 12 12 12 12 12 12 12 12 12 12 12 12 12 12 12 12 12 12 12 12 12 12 12 12 12 12 12 12 12 12 12 12 12 12 12 12 12 12 12 12 12 12 12 12 12 12 12 12 12 12 12 12 12 12 12 12 12 12 12 12 12 12 12 12
SCALARS abs_qoi_error double 1
LOOKUP_TABLE default
 9.49709e-06 1.02714e-05 1.5628e-05 1.02398e-05 9.57567e-06 2.57021e-05 1.45947e-05 0.000156879 1.46098e-05 2.57321e-05 2.12972e-05 7.99956e-05 0.000239555 7.99699e-05 2.13438e-05 2.57694e-05 1.4712e-05 0.00015698 1.493e-05 2.58643e-05 9.57821e-06 1.01425e-05 1.55826e-05 1.02594e-05 9.6317e-06 5.85795e-06 3.9854e-06 2.06434e-05 4.04172e-06 5.85908e-06 5.28327e-05 4.87531e-05 0.000128506 4.89742e-05 5.26134e-05 2.20403e-05 3.51039e-05 9.39843e-05 3.52343e-05 2.2191e-05 5.34972e-05 4.7934e-05 0.000130503 4.77255e-05 5.36443e-05 5.84206e-06 3.78213e-06 2.21001e-05 3.7892e-06 5.84589e-06 3.93889e-06 1.98603e-06 4.82458e-06 2.14468e-06 4.00206e-06 1.08107e-05 2.09705e-05 4.14986e-05 2.0832e-05 1.08494e-05 3.04774e-05 9.3809e-05 0.000137891 9.41778e-05 3.02426e-05 3.59518e-05 9.13018e-05 0.000145962 9.11448e-05 3.58647e-05 2.38543e-05 1.61845e-05 5.65178e-05 1.62861e-05 2.38293e-05 2.36082e-05 1.6315e-05 5.63356e-05 1.62221e-05 2.36915e-05 3.58898e-05 9.1373e-05 0.000146673 9.14555e-05 3.59214e-05 3.02253e-05 9.40598e-05 0.000137819 9.38993e-05 3.05477e-05 1.0827e-05 2.08664e-05 4.13567e-05 2.10575e-05 1.08917e-05 4.02892e-06 2.15817e-06 4.7819e-06 2.02375e-06 3.97981e-06 3.26743e-06 2.02297e-05 2.69671e-05 2.01714e-05 3.3309e-06 2.18172e-05 4.4777e-05 6.85101e-05 4.47967e-05 2.17717e-05 2.99966e-05 0.000106628 0.000135479 0.000106207 3.01025e-05 5.10548e-05 8.10752e-05 9.95204e-05 8.11873e-05 5.10841e-05 1.43145e-05 4.27228e-05 4.25869e-05 4.28837e-05 1.43149e-05 3.25092e-06 2.02484e-05 2.6971e-05 2.02299e-05 3.36533e-06 2.18132e-05 4.47292e-05 6.85813e-05 4.47947e-05 2.17393e-05 2.99808e-05 0.000106615 0.000135486 0.000106209 3.00903e-05 5.10909e-05 8.10408e-05 9.95365e-05 8.12328e-05 5.1026e-05 1.43322e-05 4.27496e-05 4.25003e-05 4.27194e-05 1.41932e-05

