# vtk DataFile Version 3.0
# File generated by the BrokkrIE Library (By Jake J. Harmon) on Sun Aug  4 14:56:32 2024

ASCII
DATASET UNSTRUCTURED_GRID

POINTS 2400 double
-1.16047 1.16047 -1.16047 
-1.21183 1.05025 -1.21183 
-1.26174 0.925275 -1.26174 
-1.3084 0.785039 -1.3084 
-1.21183 1.21183 -1.05025 
-1.27067 1.10125 -1.10125 
-1.32857 0.974283 -1.15143 
-1.38338 0.830026 -1.19893 
-1.26174 1.26174 -0.925275 
-1.32857 1.15143 -0.974283 
-1.39518 1.02313 -1.02313 
-1.45906 0.875436 -1.06998 
-1.3084 1.3084 -0.785039 
-1.38338 1.19893 -0.830026 
-1.45906 1.06998 -0.875436 
-1.53261 0.919566 -0.919566 
-1.3084 1.3084 -0.785039 
-1.38338 1.19893 -0.830026 
-1.45906 1.06998 -0.875436 
-1.53261 0.919566 -0.919566 
-1.3497 1.3497 -0.62986 
-1.43247 1.24147 -0.668486 
-1.51701 1.11247 -0.707939 
-1.6002 0.960118 -0.746758 
-1.38338 1.38338 -0.461126 
-1.47292 1.27653 -0.490975 
-1.56531 1.14789 -0.52177 
-1.65719 0.994316 -0.552398 
-1.40728 1.40728 -0.281456 
-1.50188 1.30163 -0.300376 
-1.6002 1.17348 -0.320039 
-1.69876 1.01926 -0.339752 
-1.40728 1.40728 -0.281456 
-1.50188 1.30163 -0.300376 
-1.6002 1.17348 -0.320039 
-1.69876 1.01926 -0.339752 
-1.41971 1.41971 -0.0946472 
-1.51701 1.31474 -0.101134 
-1.61854 1.18693 -0.107902 
-1.72075 1.03245 -0.114717 
-1.41971 1.41971 0.0946472 
-1.51701 1.31474 0.101134 
-1.61854 1.18693 0.107902 
-1.72075 1.03245 0.114717 
-1.40728 1.40728 0.281456 
-1.50188 1.30163 0.300376 
-1.6002 1.17348 0.320039 
-1.69876 1.01926 0.339752 
-1.40728 1.40728 0.281456 
-1.50188 1.30163 0.300376 
-1.6002 1.17348 0.320039 
-1.69876 1.01926 0.339752 
-1.38338 1.38338 0.461126 
-1.47292 1.27653 0.490975 
-1.56531 1.14789 0.52177 
-1.65719 0.994316 0.552398 
-1.3497 1.3497 0.62986 
-1.43247 1.24147 0.668486 
-1.51701 1.11247 0.707939 
-1.6002 0.960118 0.746758 
-1.3084 1.3084 0.785039 
-1.38338 1.19893 0.830026 
-1.45906 1.06998 0.875436 
-1.53261 0.919566 0.919566 
-1.3084 1.3084 0.785039 
-1.38338 1.19893 0.830026 
-1.45906 1.06998 0.875436 
-1.53261 0.919566 0.919566 
-1.26174 1.26174 0.925275 
-1.32857 1.15143 0.974283 
-1.39518 1.02313 1.02313 
-1.45906 0.875436 1.06998 
-1.21183 1.21183 1.05025 
-1.27067 1.10125 1.10125 
-1.32857 0.974283 1.15143 
-1.38338 0.830026 1.19893 
-1.16047 1.16047 1.16047 
-1.21183 1.05025 1.21183 
-1.26174 0.925275 1.26174 
-1.3084 0.785039 1.3084 
-1.3084 0.785039 -1.3084 
-1.3497 0.62986 -1.3497 
-1.38338 0.461126 -1.38338 
-1.40728 0.281456 -1.40728 
-1.38338 0.830026 -1.19893 
-1.43247 0.668486 -1.24147 
-1.47292 0.490975 -1.27653 
-1.50188 0.300376 -1.30163 
-1.45906 0.875436 -1.06998 
-1.51701 0.707939 -1.11247 
-1.56531 0.52177 -1.14789 
-1.6002 0.320039 -1.17348 
-1.53261 0.919566 -0.919566 
-1.6002 0.746758 -0.960118 
-1.65719 0.552398 -0.994316 
-1.69876 0.339752 -1.01926 
-1.53261 0.919566 -0.919566 
-1.6002 0.746758 -0.960118 
-1.65719 0.552398 -0.994316 
-1.69876 0.339752 -1.01926 
-1.6002 0.960118 -0.746758 
-1.67759 0.782876 -0.782876 
-1.74362 0.581207 -0.813689 
-1.79223 0.358446 -0.836375 
-1.65719 0.994316 -0.552398 
-1.74362 0.813689 -0.581207 
-1.81811 0.606038 -0.606038 
-1.87343 0.374686 -0.624477 
-1.69876 1.01926 -0.339752 
-1.79223 0.836375 -0.358446 
-1.87343 0.624477 -0.374686 
-1.93412 0.386825 -0.386825 
-1.69876 1.01926 -0.339752 
-1.79223 0.836375 -0.358446 
-1.87343 0.624477 -0.374686 
-1.93412 0.386825 -0.386825 
-1.72075 1.03245 -0.114717 
-1.81811 0.848453 -0.121208 
-1.90305 0.63435 -0.12687 
-1.96677 0.393354 -0.131118 
-1.72075 1.03245 0.114717 
-1.81811 0.848453 0.121208 
-1.90305 0.63435 0.12687 
-1.96677 0.393354 0.131118 
-1.69876 1.01926 0.339752 
-1.79223 0.836375 0.358446 
-1.87343 0.624477 0.374686 
-1.93412 0.386825 0.386825 
-1.69876 1.01926 0.339752 
-1.79223 0.836375 0.358446 
-1.87343 0.624477 0.374686 
-1.93412 0.386825 0.386825 
-1.65719 0.994316 0.552398 
-1.74362 0.813689 0.581207 
-1.81811 0.606038 0.606038 
-1.87343 0.374686 0.624477 
-1.6002 0.960118 0.746758 
-1.67759 0.782876 0.782876 
-1.74362 0.581207 0.813689 
-1.79223 0.358446 0.836375 
-1.53261 0.919566 0.919566 
-1.6002 0.746758 0.960118 
-1.65719 0.552398 0.994316 
-1.69876 0.339752 1.01926 
-1.53261 0.919566 0.919566 
-1.6002 0.746758 0.960118 
-1.65719 0.552398 0.994316 
-1.69876 0.339752 1.01926 
-1.45906 0.875436 1.06998 
-1.51701 0.707939 1.11247 
-1.56531 0.52177 1.14789 
-1.6002 0.320039 1.17348 
-1.38338 0.830026 1.19893 
-1.43247 0.668486 1.24147 
-1.47292 0.490975 1.27653 
-1.50188 0.300376 1.30163 
-1.3084 0.785039 1.3084 
-1.3497 0.62986 1.3497 
-1.38338 0.461126 1.38338 
-1.40728 0.281456 1.40728 
-1.40728 0.281456 -1.40728 
-1.41971 0.0946472 -1.41971 
-1.41971 -0.0946472 -1.41971 
-1.40728 -0.281456 -1.40728 
-1.50188 0.300376 -1.30163 
-1.51701 0.101134 -1.31474 
-1.51701 -0.101134 -1.31474 
-1.50188 -0.300376 -1.30163 
-1.6002 0.320039 -1.17348 
-1.61854 0.107902 -1.18693 
-1.61854 -0.107902 -1.18693 
-1.6002 -0.320039 -1.17348 
-1.69876 0.339752 -1.01926 
-1.72075 0.114717 -1.03245 
-1.72075 -0.114717 -1.03245 
-1.69876 -0.339752 -1.01926 
-1.69876 0.339752 -1.01926 
-1.72075 0.114717 -1.03245 
-1.72075 -0.114717 -1.03245 
-1.69876 -0.339752 -1.01926 
-1.79223 0.358446 -0.836375 
-1.81811 0.121208 -0.848453 
-1.81811 -0.121208 -0.848453 
-1.79223 -0.358446 -0.836375 
-1.87343 0.374686 -0.624477 
-1.90305 0.12687 -0.63435 
-1.90305 -0.12687 -0.63435 
-1.87343 -0.374686 -0.624477 
-1.93412 0.386825 -0.386825 
-1.96677 0.131118 -0.393354 
-1.96677 -0.131118 -0.393354 
-1.93412 -0.386825 -0.386825 
-1.93412 0.386825 -0.386825 
-1.96677 0.131118 -0.393354 
-1.96677 -0.131118 -0.393354 
-1.93412 -0.386825 -0.386825 
-1.96677 0.393354 -0.131118 
-2.00113 0.133408 -0.133408 
-2.00113 -0.133408 -0.133408 
-1.96677 -0.393354 -0.131118 
-1.96677 0.393354 0.131118 
-2.00113 0.133408 0.133408 
-2.00113 -0.133408 0.133408 
-1.96677 -0.393354 0.131118 
-1.93412 0.386825 0.386825 
-1.96677 0.131118 0.393354 
-1.96677 -0.131118 0.393354 
-1.93412 -0.386825 0.386825 
-1.93412 0.386825 0.386825 
-1.96677 0.131118 0.393354 
-1.96677 -0.131118 0.393354 
-1.93412 -0.386825 0.386825 
-1.87343 0.374686 0.624477 
-1.90305 0.12687 0.63435 
-1.90305 -0.12687 0.63435 
-1.87343 -0.374686 0.624477 
-1.79223 0.358446 0.836375 
-1.81811 0.121208 0.848453 
-1.81811 -0.121208 0.848453 
-1.79223 -0.358446 0.836375 
-1.69876 0.339752 1.01926 
-1.72075 0.114717 1.03245 
-1.72075 -0.114717 1.03245 
-1.69876 -0.339752 1.01926 
-1.69876 0.339752 1.01926 
-1.72075 0.114717 1.03245 
-1.72075 -0.114717 1.03245 
-1.69876 -0.339752 1.01926 
-1.6002 0.320039 1.17348 
-1.61854 0.107902 1.18693 
-1.61854 -0.107902 1.18693 
-1.6002 -0.320039 1.17348 
-1.50188 0.300376 1.30163 
-1.51701 0.101134 1.31474 
-1.51701 -0.101134 1.31474 
-1.50188 -0.300376 1.30163 
-1.40728 0.281456 1.40728 
-1.41971 0.0946472 1.41971 
-1.41971 -0.0946472 1.41971 
-1.40728 -0.281456 1.40728 
-1.40728 -0.281456 -1.40728 
-1.38338 -0.461126 -1.38338 
-1.3497 -0.62986 -1.3497 
-1.3084 -0.785039 -1.3084 
-1.50188 -0.300376 -1.30163 
-1.47292 -0.490975 -1.27653 
-1.43247 -0.668486 -1.24147 
-1.38338 -0.830026 -1.19893 
-1.6002 -0.320039 -1.17348 
-1.56531 -0.52177 -1.14789 
-1.51701 -0.707939 -1.11247 
-1.45906 -0.875436 -1.06998 
-1.69876 -0.339752 -1.01926 
-1.65719 -0.552398 -0.994316 
-1.6002 -0.746758 -0.960118 
-1.53261 -0.919566 -0.919566 
-1.69876 -0.339752 -1.01926 
-1.65719 -0.552398 -0.994316 
-1.6002 -0.746758 -0.960118 
-1.53261 -0.919566 -0.919566 
-1.79223 -0.358446 -0.836375 
-1.74362 -0.581207 -0.813689 
-1.67759 -0.782876 -0.782876 
-1.6002 -0.960118 -0.746758 
-1.87343 -0.374686 -0.624477 
-1.81811 -0.606038 -0.606038 
-1.74362 -0.813689 -0.581207 
-1.65719 -0.994316 -0.552398 
-1.93412 -0.386825 -0.386825 
-1.87343 -0.624477 -0.374686 
-1.79223 -0.836375 -0.358446 
-1.69876 -1.01926 -0.339752 
-1.93412 -0.386825 -0.386825 
-1.87343 -0.624477 -0.374686 
-1.79223 -0.836375 -0.358446 
-1.69876 -1.01926 -0.339752 
-1.96677 -0.393354 -0.131118 
-1.90305 -0.63435 -0.12687 
-1.81811 -0.848453 -0.121208 
-1.72075 -1.03245 -0.114717 
-1.96677 -0.393354 0.131118 
-1.90305 -0.63435 0.12687 
-1.81811 -0.848453 0.121208 
-1.72075 -1.03245 0.114717 
-1.93412 -0.386825 0.386825 
-1.87343 -0.624477 0.374686 
-1.79223 -0.836375 0.358446 
-1.69876 -1.01926 0.339752 
-1.93412 -0.386825 0.386825 
-1.87343 -0.624477 0.374686 
-1.79223 -0.836375 0.358446 
-1.69876 -1.01926 0.339752 
-1.87343 -0.374686 0.624477 
-1.81811 -0.606038 0.606038 
-1.74362 -0.813689 0.581207 
-1.65719 -0.994316 0.552398 
-1.79223 -0.358446 0.836375 
-1.74362 -0.581207 0.813689 
-1.67759 -0.782876 0.782876 
-1.6002 -0.960118 0.746758 
-1.69876 -0.339752 1.01926 
-1.65719 -0.552398 0.994316 
-1.6002 -0.746758 0.960118 
-1.53261 -0.919566 0.919566 
-1.69876 -0.339752 1.01926 
-1.65719 -0.552398 0.994316 
-1.6002 -0.746758 0.960118 
-1.53261 -0.919566 0.919566 
-1.6002 -0.320039 1.17348 
-1.56531 -0.52177 1.14789 
-1.51701 -0.707939 1.11247 
-1.45906 -0.875436 1.06998 
-1.50188 -0.300376 1.30163 
-1.47292 -0.490975 1.27653 
-1.43247 -0.668486 1.24147 
-1.38338 -0.830026 1.19893 
-1.40728 -0.281456 1.40728 
-1.38338 -0.461126 1.38338 
-1.3497 -0.62986 1.3497 
-1.3084 -0.785039 1.3084 
-1.3084 -0.785039 -1.3084 
-1.26174 -0.925275 -1.26174 
-1.21183 -1.05025 -1.21183 
-1.16047 -1.16047 -1.16047 
-1.38338 -0.830026 -1.19893 
-1.32857 -0.974283 -1.15143 
-1.27067 -1.10125 -1.10125 
-1.21183 -1.21183 -1.05025 
-1.45906 -0.875436 -1.06998 
-1.39518 -1.02313 -1.02313 
-1.32857 -1.15143 -0.974283 
-1.26174 -1.26174 -0.925275 
-1.53261 -0.919566 -0.919566 
-1.45906 -1.06998 -0.875436 
-1.38338 -1.19893 -0.830026 
-1.3084 -1.3084 -0.785039 
-1.53261 -0.919566 -0.919566 
-1.45906 -1.06998 -0.875436 
-1.38338 -1.19893 -0.830026 
-1.3084 -1.3084 -0.785039 
-1.6002 -0.960118 -0.746758 
-1.51701 -1.11247 -0.707939 
-1.43247 -1.24147 -0.668486 
-1.3497 -1.3497 -0.62986 
-1.65719 -0.994316 -0.552398 
-1.56531 -1.14789 -0.52177 
-1.47292 -1.27653 -0.490975 
-1.38338 -1.38338 -0.461126 
-1.69876 -1.01926 -0.339752 
-1.6002 -1.17348 -0.320039 
[...]
CELL_DATA 150
SCALARS fe_degrees double 1
LOOKUP_TABLE default
 1 1 1 1 1 1 1 1 1 1 1 1 1 1 1 1 1 1 1 1 1 1 1 1 1 1 1 1 1 1 1 1 1 1 1 1 1 1 1 1 1 1 1 1 1 1 1 1 1 1 1 1 1 1 1 1 1 1 1 1 1 1 1 1 1 1 1 1 1 1 1 1 1 1 1 1 1 1 1 1 1 1 1 1 1 1 1 1 1 1 1 1 1 1 1 1 1 1 1 1 1 1 1 1 1 1 1 1 1 1 1 1 1 1 1 1 1 1 1 1 1 1 1 1 1 1 1 1 1 1 1 1 1 1 1 1 1 1 1 1 1 1 1 1 1 1 1 1 1 1
SCALARS dofs_per_cell double 1
LOOKUP_TABLE default
 12 12 12 12 12 12 12 12 12 12 12 12 12 12 12 12 12 12 12 12 12 12 12 12 12 12 12 12 12 12 12 12 12 12 12 12 12 12 12 12 12 12 12 12 12 12 12 12 12 12 12 12 12 12 12 12 12 12 12 12 12 12 12 12 12 12 12 12 12 12 12 12 12 12 12 12 12 12 12 12 12 12 12 12 12 12 12 12 12 12 12 12 12 12 12 12 12 12 12 12 12 12 12 12 12 12 12 12 12 12 12 12 12 12 12 12 12 12 12 12 12 12 12 12 12 12 12 12 12 12 12 12 12 12 12 12 12 12 12 12 12 12 12 12 12 12 12 12 12 12
SCALARS abs_qoi_error double 1
LOOKUP_TABLE default
 0.000315559 0.000282546 0.000773571 0.000252004 0.000322607 0.000830434 0.00106773 0.00384652 0.00109835 0.000895222 0.00144248 0.00262603 0.00238493 0.00264172 0.00143544 0.00100848 0.000989649 0.00399362 0.000954775 0.000943881 0.000298575 0.000200437 0.000761251 0.000241497 0.00027762 0.000254689 0.000674775 0.00116675 0.00066193 0.000257638 0.0014477 0.00133802 0.00286559 0.00145552 0.0014265 0.000445915 0.000187459 0.000254083 0.000178543 0.000445009 0.00153372 0.00139053 0.00311572 0.00127514 0.00152389 0.000211579 0.000625831 0.0012252 0.000618561 0.000220267 0.000103064 0.000260069 0.000642562 0.000231102 0.000135442 8.6021e-05 0.00067059 0.0015503 0.000615765 9.16674e-05 0.000226276 0.00087148 0.0006099 0.000939664 0.000219865 0.000338344 0.00108857 0.00120889 0.00103478 0.000378573 0.000120728 0.000275702 0.000554021 0.000266328 0.000112247 0.00011295 0.000249279 0.000669555 0.000243347 0.000135806 0.000419185 0.00104232 0.00132842 0.00108551 0.000377092 0.000212869 0.00098004 0.000566934 0.000868779 0.000233309 9.85046e-05 0.000674928 0.0010663 0.000753398 6.54694e-05 0.000170975 0.000187668 0.000792797 0.000196976 0.000140547 0.00010538 0.000447923 0.00193774 0.000455537 0.00015812 5.88427e-05 0.000904614 0.00113598 0.000343651 0.000148661 0.000877908 0.00153668 0.00188104 0.00152025 0.000866291 0.000965572 0.000906986 0.00122797 0.000714237 0.000793456 0.000413073 0.00088984 0.00205202 0.00122588 0.000264043 0.000133124 0.000381742 0.00193398 0.000501161 0.000131618 0.000156169 0.000300406 0.00114074 0.000953756 6.09197e-05 0.000885393 0.00154746 0.00188054 0.00152227 0.000854436 0.000749047 0.0006982 0.0012299 0.00092401 0.00100299 0.000261462 0.00122754 0.00204995 0.000903668 0.000398357

