# vtk DataFile Version 3.0
# File generated by the BrokkrIE Library (By Jake J. Harmon) on Thu Aug 22 11:23:57 2024

ASCII
DATASET UNSTRUCTURED_GRID

POINTS 7776 double
-0.736033 0.736033 -0.736033 
-0.754184 0.698318 -0.754184 
-0.772188 0.65779 -0.772188 
-0.789877 0.614349 -0.789877 
-0.754184 0.754184 -0.698318 
-0.773747 0.716432 -0.716432 
-0.793226 0.675711 -0.734468 
-0.812437 0.631895 -0.752256 
-0.772188 0.772188 -0.65779 
-0.793226 0.734468 -0.675711 
-0.814253 0.693623 -0.693623 
-0.835074 0.649502 -0.71136 
-0.789877 0.789877 -0.614349 
-0.812437 0.752256 -0.631895 
-0.835074 0.71136 -0.649502 
-0.857579 0.667006 -0.667006 
-0.789877 0.789877 -0.614349 
-0.812437 0.752256 -0.631895 
-0.835074 0.71136 -0.649502 
-0.857579 0.667006 -0.667006 
-0.807059 0.807059 -0.567931 
-0.83117 0.769602 -0.584897 
-0.855457 0.728723 -0.601989 
-0.879699 0.684211 -0.619048 
-0.823522 0.823522 -0.518514 
-0.849186 0.786284 -0.534673 
-0.875138 0.745488 -0.551013 
-0.901144 0.70089 -0.567387 
-0.839034 0.839034 -0.46613 
-0.866225 0.80206 -0.481236 
-0.893822 0.761404 -0.496568 
-0.921584 0.716787 -0.511991 
-0.839034 0.839034 -0.46613 
-0.866225 0.80206 -0.481236 
-0.893822 0.761404 -0.496568 
-0.921584 0.716787 -0.511991 
-0.853352 0.853352 -0.410873 
-0.882007 0.816673 -0.42467 
-0.911192 0.7762 -0.438722 
-0.940658 0.731623 -0.452909 
-0.866225 0.866225 -0.352907 
-0.896243 0.829855 -0.365136 
-0.926915 0.789594 -0.377632 
-0.957985 0.745099 -0.39029 
-0.87741 0.87741 -0.29247 
-0.908648 0.841341 -0.302883 
-0.940658 0.801301 -0.313553 
-0.97318 0.756918 -0.324393 
-0.87741 0.87741 -0.29247 
-0.908648 0.841341 -0.302883 
-0.940658 0.801301 -0.313553 
-0.97318 0.756918 -0.324393 
-0.886677 0.886677 -0.229879 
-0.918952 0.850882 -0.238247 
-0.952103 0.811051 -0.246842 
-0.985871 0.766788 -0.255596 
-0.893822 0.893822 -0.165523 
-0.926915 0.858254 -0.171651 
-0.960967 0.818602 -0.177957 
-0.995721 0.77445 -0.184393 
-0.898684 0.898684 -0.0998537 
-0.932339 0.863277 -0.103593 
-0.967016 0.823754 -0.107446 
-1.00246 0.779687 -0.111384 
-0.898684 0.898684 -0.0998537 
-0.932339 0.863277 -0.103593 
-0.967016 0.823754 -0.107446 
-1.00246 0.779687 -0.111384 
-0.901144 0.901144 -0.0333757 
-0.935087 0.865822 -0.0346329 
-0.970083 0.826367 -0.035929 
-1.00587 0.782346 -0.0372546 
-0.901144 0.901144 0.0333757 
-0.935087 0.865822 0.0346329 
-0.970083 0.826367 0.035929 
-1.00587 0.782346 0.0372546 
-0.898684 0.898684 0.0998537 
-0.932339 0.863277 0.103593 
-0.967016 0.823754 0.107446 
-1.00246 0.779687 0.111384 
-0.898684 0.898684 0.0998537 
-0.932339 0.863277 0.103593 
-0.967016 0.823754 0.107446 
-1.00246 0.779687 0.111384 
-0.893822 0.893822 0.165523 
-0.926915 0.858254 0.171651 
-0.960967 0.818602 0.177957 
-0.995721 0.77445 0.184393 
-0.886677 0.886677 0.229879 
-0.918952 0.850882 0.238247 
-0.952103 0.811051 0.246842 
-0.985871 0.766788 0.255596 
-0.87741 0.87741 0.29247 
-0.908648 0.841341 0.302883 
-0.940658 0.801301 0.313553 
-0.97318 0.756918 0.324393 
-0.87741 0.87741 0.29247 
-0.908648 0.841341 0.302883 
-0.940658 0.801301 0.313553 
-0.97318 0.756918 0.324393 
-0.866225 0.866225 0.352907 
-0.896243 0.829855 0.365136 
-0.926915 0.789594 0.377632 
-0.957985 0.745099 0.39029 
-0.853352 0.853352 0.410873 
-0.882007 0.816673 0.42467 
-0.911192 0.7762 0.438722 
-0.940658 0.731623 0.452909 
-0.839034 0.839034 0.46613 
-0.866225 0.80206 0.481236 
-0.893822 0.761404 0.496568 
-0.921584 0.716787 0.511991 
-0.839034 0.839034 0.46613 
-0.866225 0.80206 0.481236 
-0.893822 0.761404 0.496568 
-0.921584 0.716787 0.511991 
-0.823522 0.823522 0.518514 
-0.849186 0.786284 0.534673 
-0.875138 0.745488 0.551013 
-0.901144 0.70089 0.567387 
-0.807059 0.807059 0.567931 
-0.83117 0.769602 0.584897 
-0.855457 0.728723 0.601989 
-0.879699 0.684211 0.619048 
-0.789877 0.789877 0.614349 
-0.812437 0.752256 0.631895 
-0.835074 0.71136 0.649502 
-0.857579 0.667006 0.667006 
-0.789877 0.789877 0.614349 
-0.812437 0.752256 0.631895 
-0.835074 0.71136 0.649502 
-0.857579 0.667006 0.667006 
-0.772188 0.772188 0.65779 
-0.793226 0.734468 0.675711 
-0.814253 0.693623 0.693623 
-0.835074 0.649502 0.71136 
-0.754184 0.754184 0.698318 
-0.773747 0.716432 0.716432 
-0.793226 0.675711 0.734468 
-0.812437 0.631895 0.752256 
-0.736033 0.736033 0.736033 
-0.754184 0.698318 0.754184 
-0.772188 0.65779 0.772188 
-0.789877 0.614349 0.789877 
-0.789877 0.614349 -0.789877 
-0.807059 0.567931 -0.807059 
-0.823522 0.518514 -0.823522 
-0.839034 0.46613 -0.839034 
-0.812437 0.631895 -0.752256 
-0.83117 0.584897 -0.769602 
-0.849186 0.534673 -0.786284 
-0.866225 0.481236 -0.80206 
-0.835074 0.649502 -0.71136 
-0.855457 0.601989 -0.728723 
-0.875138 0.551013 -0.745488 
-0.893822 0.496568 -0.761404 
-0.857579 0.667006 -0.667006 
-0.879699 0.619048 -0.684211 
-0.901144 0.567387 -0.70089 
-0.921584 0.511991 -0.716787 
-0.857579 0.667006 -0.667006 
-0.879699 0.619048 -0.684211 
-0.901144 0.567387 -0.70089 
-0.921584 0.511991 -0.716787 
-0.879699 0.684211 -0.619048 
-0.903625 0.635884 -0.635884 
-0.926915 0.583613 -0.652273 
-0.949203 0.527335 -0.667957 
-0.901144 0.70089 -0.567387 
-0.926915 0.652273 -0.583613 
-0.952103 0.599472 -0.599472 
-0.976307 0.542393 -0.614712 
-0.921584 0.716787 -0.511991 
-0.949203 0.667957 -0.527335 
-0.976307 0.614712 -0.542393 
-1.00246 0.556919 -0.556919 
-0.921584 0.716787 -0.511991 
-0.949203 0.667957 -0.527335 
-0.976307 0.614712 -0.542393 
-1.00246 0.556919 -0.556919 
-0.940658 0.731623 -0.452909 
-0.970083 0.682651 -0.467077 
-0.999071 0.629045 -0.481034 
-1.02715 0.570636 -0.494552 
-0.957985 0.745099 -0.39029 
-0.989122 0.696049 -0.402976 
-1.01991 0.642163 -0.415517 
-1.04983 0.583237 -0.427707 
-0.97318 0.756918 -0.324393 
-1.00587 0.707837 -0.335291 
-1.0383 0.653745 -0.3461 
-1.06992 0.5944 -0.35664 
-0.97318 0.756918 -0.324393 
-1.00587 0.707837 -0.335291 
-1.0383 0.653745 -0.3461 
-1.06992 0.5944 -0.35664 
-0.985871 0.766788 -0.255596 
-1.01991 0.717711 -0.26442 
-1.05375 0.663475 -0.273196 
-1.08685 0.603808 -0.281777 
-0.995721 0.77445 -0.184393 
-1.03082 0.725394 -0.190893 
-1.06581 0.671065 -0.197372 
-1.1001 0.611164 -0.203721 
-1.00246 0.779687 -0.111384 
-1.0383 0.730656 -0.115367 
-1.07408 0.676273 -0.119342 
-1.1092 0.616221 -0.123244 
-1.00246 0.779687 -0.111384 
-1.0383 0.730656 -0.115367 
-1.07408 0.676273 -0.119342 
-1.1092 0.616221 -0.123244 
-1.00587 0.782346 -0.0372546 
-1.0421 0.73333 -0.0385963 
-1.07829 0.678922 -0.0399366 
-1.11383 0.618796 -0.0412531 
-1.00587 0.782346 0.0372546 
-1.0421 0.73333 0.0385963 
-1.07829 0.678922 0.0399366 
-1.11383 0.618796 0.0412531 
-1.00246 0.779687 0.111384 
-1.0383 0.730656 0.115367 
-1.07408 0.676273 0.119342 
-1.1092 0.616221 0.123244 
-1.00246 0.779687 0.111384 
-1.0383 0.730656 0.115367 
-1.07408 0.676273 0.119342 
-1.1092 0.616221 0.123244 
-0.995721 0.77445 0.184393 
-1.03082 0.725394 0.190893 
-1.06581 0.671065 0.197372 
-1.1001 0.611164 0.203721 
-0.985871 0.766788 0.255596 
-1.01991 0.717711 0.26442 
-1.05375 0.663475 0.273196 
-1.08685 0.603808 0.281777 
-0.97318 0.756918 0.324393 
-1.00587 0.707837 0.335291 
-1.0383 0.653745 0.3461 
-1.06992 0.5944 0.35664 
-0.97318 0.756918 0.324393 
-1.00587 0.707837 0.335291 
-1.0383 0.653745 0.3461 
-1.06992 0.5944 0.35664 
-0.957985 0.745099 0.39029 
-0.989122 0.696049 0.402976 
-1.01991 0.642163 0.415517 
-1.04983 0.583237 0.427707 
-0.940658 0.731623 0.452909 
-0.970083 0.682651 0.467077 
-0.999071 0.629045 0.481034 
-1.02715 0.570636 0.494552 
-0.921584 0.716787 0.511991 
-0.949203 0.667957 0.527335 
-0.976307 0.614712 0.542393 
-1.00246 0.556919 0.556919 
-0.921584 0.716787 0.511991 
-0.949203 0.667957 0.527335 
-0.976307 0.614712 0.542393 
-1.00246 0.556919 0.556919 
-0.901144 0.70089 0.567387 
-0.926915 0.652273 0.583613 
-0.952103 0.599472 0.599472 
-0.976307 0.542393 0.614712 
-0.879699 0.684211 0.619048 
-0.903625 0.635884 0.635884 
-0.926915 0.583613 0.652273 
-0.949203 0.527335 0.667957 
-0.857579 0.667006 0.667006 
-0.879699 0.619048 0.684211 
-0.901144 0.567387 0.70089 
-0.921584 0.511991 0.716787 
-0.857579 0.667006 0.667006 
-0.879699 0.619048 0.684211 
-0.901144 0.567387 0.70089 
-0.921584 0.511991 0.716787 
-0.835074 0.649502 0.71136 
-0.855457 0.601989 0.728723 
-0.875138 0.551013 0.745488 
-0.893822 0.496568 0.761404 
-0.812437 0.631895 0.752256 
-0.83117 0.584897 0.769602 
-0.849186 0.534673 0.786284 
-0.866225 0.481236 0.80206 
-0.789877 0.614349 0.789877 
-0.807059 0.567931 0.807059 
-0.823522 0.518514 0.823522 
-0.839034 0.46613 0.839034 
-0.839034 0.46613 -0.839034 
-0.853352 0.410873 -0.853352 
-0.866225 0.352907 -0.866225 
-0.87741 0.29247 -0.87741 
-0.866225 0.481236 -0.80206 
-0.882007 0.42467 -0.816673 
-0.896243 0.365136 -0.829855 
-0.908648 0.302883 -0.841341 
-0.893822 0.496568 -0.761404 
-0.911192 0.438722 -0.7762 
-0.926915 0.377632 -0.789594 
-0.940658 0.313553 -0.801301 
-0.921584 0.511991 -0.716787 
-0.940658 0.452909 -0.731623 
-0.957985 0.39029 -0.745099 
-0.97318 0.324393 -0.756918 
-0.921584 0.511991 -0.716787 
-0.940658 0.452909 -0.731623 
-0.957985 0.39029 -0.745099 
-0.97318 0.324393 -0.756918 
-0.949203 0.527335 -0.667957 
-0.970083 0.467077 -0.682651 
-0.989122 0.402976 -0.696049 
-1.00587 0.335291 -0.707837 
-0.976307 0.542393 -0.614712 
-0.999071 0.481034 -0.629045 
-1.01991 0.415517 -0.642163 
-1.0383 0.3461 -0.653745 
-1.00246 0.556919 -0.556919 
-1.02715 0.494552 -0.570636 
-1.04983 0.427707 -0.583237 
-1.06992 0.35664 -0.5944 
-1.00246 0.556919 -0.556919 
-1.02715 0.494552 -0.570636 
-1.04983 0.427707 -0.583237 
-1.06992 0.35664 -0.5944 
-1.02715 0.570636 -0.494552 
-1.05375 0.507363 -0.507363 
-1.07829 0.439302 -0.519176 
-1.1001 0.366699 -0.529676 
-1.04983 0.583237 -0.427707 
-1.07829 0.519176 -0.439302 
-1.10462 0.45003 -0.45003 
-1.1281 0.376033 -0.459596 
-1.06992 0.5944 -0.35664 
-1.1001 0.529676 -0.366699 
-1.1281 0.459596 -0.376033 
-1.15314 0.384381 -0.384381 
-1.06992 0.5944 -0.35664 
-1.1001 0.529676 -0.366699 
-1.1281 0.459596 -0.376033 
[...]
CELL_DATA 486
SCALARS fe_degrees double 1
LOOKUP_TABLE default
 1 1 1 1 1 1 1 1 1 1 1 1 1 1 1 1 1 1 1 1 1 1 1 1 1 1 1 1 1 1 1 1 1 1 1 1 1 1 1 1 1 1 1 1 1 1 1 1 1 1 1 1 1 1 1 1 1 1 1 1 1 1 1 1 1 1 1 1 1 1 1 1 1 1 1 1 1 1 1 1 1 1 1 1 1 1 1 1 1 1 1 1 1 1 1 1 1 1 1 1 1 1 1 1 1 1 1 1 1 1 1 1 1 1 1 1 1 1 1 1 1 1 1 1 1 1 1 1 1 1 1 1 1 1 1 1 1 1 1 1 1 1 1 1 1 1 1 1 1 1 1 1 1 1 1 1 1 1 1 1 1 1 1 1 1 1 1 1 1 1 1 1 1 1 1 1 1 1 1 1 1 1 1 1 1 1 1 1 1 1 1 1 1 1 1 1 1 1 1 1 1 1 1 1 1 1 1 1 1 1 1 1 1 1 1 1 1 1 1 1 1 1 1 1 1 1 1 1 1 1 1 1 1 1 1 1 1 1 1 1 1 1 1 1 1 1 1 1 1 1 1 1 1 1 1 1 1 1 1 1 1 1 1 1 1 1 1 1 1 1 1 1 1 1 1 1 1 1 1 1 1 1 1 1 1 1 1 1 1 1 1 1 1 1 1 1 1 1 1 1 1 1 1 1 1 1 1 1 1 1 1 1 1 1 1 1 1 1 1 1 1 1 1 1 1 1 1 1 1 1 1 1 1 1 1 1 1 1 1 1 1 1 1 1 1 1 1 1 1 1 1 1 1 1 1 1 1 1 1 1 1 1 1 1 1 1 1 1 1 1 1 1 1 1 1 1 1 1 1 1 1 1 1 1 1 1 1 1 1 1 1 1 1 1 1 1 1 1 1 1 1 1 1 1 1 1 1 1 1 1 1 1 1 1 1 1 1 1 1 1 1 1 1 1 1 1 1 1 1 1 1 1 1 1 1 1 1 1 1 1 1 1 1 1 1 1 1 1 1 1 1 1 1 1 1 1 1 1 1 1 1 1 1 1 1 1 1 1 1 1 1 1 1 1 1 1 1 1 1 1 1 1 1 1 1 1
SCALARS dofs_per_cell double 1
LOOKUP_TABLE default
 12 12 12 12 12 12 12 12 12 12 12 12 12 12 12 12 12 12 12 12 12 12 12 12 12 12 12 12 12 12 12 12 12 12 12 12 12 12 12 12 12 12 12 12 12 12 12 12 12 12 12 12 12 12 12 12 12 12 12 12 12 12 12 12 12 12 12 12 12 12 12 12 12 12 12 12 12 12 12 12 12 12 12 12 12 12 12 12 12 12 12 12 12 12 12 12 12 12 12 12 12 12 12 12 12 12 12 12 12 12 12 12 12 12 12 12 12 12 12 12 12 12 12 12 12 12 12 12 12 12 12 12 12 12 12 12 12 12 12 12 12 12 12 12 12 12 12 12 12 12 12 12 12 12 12 12 12 12 12 12 12 12 12 12 12 12 12 12 12 12 12 12 12 12 12 12 12 12 12 12 12 12 12 12 12 12 12 12 12 12 12 12 12 12 12 12 12 12 12 12 12 12 12 12 12 12 12 12 12 12 12 12 12 12 12 12 12 12 12 12 12 12 12 12 12 12 12 12 12 12 12 12 12 12 12 12 12 12 12 12 12 12 12 12 12 12 12 12 12 12 12 12 12 12 12 12 12 12 12 12 12 12 12 12 12 12 12 12 12 12 12 12 12 12 12 12 12 12 12 12 12 12 12 12 12 12 12 12 12 12 12 12 12 12 12 12 12 12 12 12 12 12 12 12 12 12 12 12 12 12 12 12 12 12 12 12 12 12 12 12 12 12 12 12 12 12 12 12 12 12 12 12 12 12 12 12 12 12 12 12 12 12 12 12 12 12 12 12 12 12 12 12 12 12 12 12 12 12 12 12 12 12 12 12 12 12 12 12 12 12 12 12 12 12 12 12 12 12 12 12 12 12 12 12 12 12 12 12 12 12 12 12 12 12 12 12 12 12 12 12 12 12 12 12 12 12 12 12 12 12 12 12 12 12 12 12 12 12 12 12 12 12 12 12 12 12 12 12 12 12 12 12 12 12 12 12 12 12 12 12 12 12 12 12 12 12 12 12 12 12 12 12 12 12 12 12 12 12 12 12 12 12 12 12 12 12 12 12 12 12 12 12 12 12 12 12 12 12 12 12 12 12 12 12 12 12
SCALARS abs_qoi_error double 1
LOOKUP_TABLE default
 8.78013e-07 8.90072e-07 4.77952e-07 1.83241e-07 1.69317e-07 1.83102e-07 4.77423e-07 8.90758e-07 8.7956e-07 1.47096e-06 1.62413e-06 9.61454e-07 3.63495e-07 1.29239e-07 3.63316e-07 9.61756e-07 1.62582e-06 1.47449e-06 1.32295e-06 1.82293e-06 1.81179e-06 6.6995e-07 2.91472e-07 6.68002e-07 1.81348e-06 1.82603e-06 1.32713e-06 4.58269e-07 7.5774e-07 1.08866e-06 1.16991e-06 4.40406e-06 1.16543e-06 1.09064e-06 7.60101e-07 4.58565e-07 5.06313e-07 5.77101e-07 4.98105e-07 1.8919e-06 3.29166e-06 1.89003e-06 4.98526e-07 5.77136e-07 5.09102e-07 4.56754e-07 7.57386e-07 1.08941e-06 1.16377e-06 4.39847e-06 1.15994e-06 1.0918e-06 7.60193e-07 4.60832e-07 1.32467e-06 1.82296e-06 1.81297e-06 6.72036e-07 2.91425e-07 6.6987e-07 1.81474e-06 1.82643e-06 1.32594e-06 1.47208e-06 1.62573e-06 9.63424e-07 3.63575e-07 1.29286e-07 3.63208e-07 9.63314e-07 1.62727e-06 1.47244e-06 8.78408e-07 8.90145e-07 4.78207e-07 1.83231e-07 1.69079e-07 1.83248e-07 4.77954e-07 8.91083e-07 8.7892e-07 3.4293e-07 3.31049e-07 3.12483e-07 4.90374e-07 6.70095e-07 4.9068e-07 3.1327e-07 3.33643e-07 3.43103e-07 7.50176e-07 1.18834e-06 8.218e-07 1.31338e-06 1.7598e-06 1.31247e-06 8.19254e-07 1.18957e-06 7.48244e-07 6.94561e-07 1.3859e-06 1.91412e-06 3.15913e-06 1.86746e-06 3.16125e-06 1.91272e-06 1.3876e-06 6.8983e-07 3.6489e-07 2.41014e-07 1.98424e-06 1.85316e-06 3.79659e-06 1.85231e-06 1.98226e-06 2.44282e-07 3.63572e-07 3.91352e-07 2.17179e-07 6.24899e-07 1.36977e-07 1.04465e-06 1.29308e-07 6.24193e-07 2.24148e-07 3.90273e-07 3.61224e-07 2.35633e-07 1.98995e-06 1.90002e-06 3.69418e-06 1.89929e-06 1.98813e-06 2.39375e-07 3.57753e-07 6.85612e-07 1.38759e-06 1.90163e-06 3.11292e-06 1.86307e-06 3.11533e-06 1.89993e-06 1.39029e-06 6.84385e-07 7.44804e-07 1.18658e-06 8.41796e-07 1.31447e-06 1.74425e-06 1.3137e-06 8.39059e-07 1.18844e-06 7.44758e-07 3.39001e-07 3.22929e-07 3.1122e-07 4.92415e-07 6.65801e-07 4.92686e-07 3.12013e-07 3.25409e-07 3.40126e-07 4.31991e-07 2.63369e-07 1.56103e-07 1.43572e-07 1.45392e-07 1.43469e-07 1.55664e-07 2.63066e-07 4.31213e-07 1.53792e-07 3.27887e-08 1.21158e-07 1.3874e-07 1.20258e-07 1.3856e-07 1.20525e-07 3.22626e-08 1.54512e-07 6.33009e-07 6.73918e-07 5.92705e-07 3.54003e-07 3.52929e-07 3.53566e-07 5.91459e-07 6.73162e-07 6.3278e-07 1.67788e-06 1.91622e-06 1.65778e-06 1.59039e-06 1.92696e-06 1.59125e-06 1.65843e-06 1.9146e-06 1.67637e-06 2.48932e-06 2.83487e-06 3.1501e-06 4.36066e-06 5.31647e-06 4.36352e-06 3.15271e-06 2.83352e-06 2.48687e-06 2.17167e-06 2.79716e-06 4.37745e-06 6.74978e-06 7.98768e-06 6.75065e-06 4.37912e-06 2.79746e-06 2.17151e-06 2.08258e-06 2.57788e-06 3.81518e-06 5.32159e-06 5.96459e-06 5.32014e-06 3.81424e-06 2.57791e-06 2.08428e-06 1.62858e-06 1.4564e-06 1.6265e-06 2.29224e-06 2.61406e-06 2.29163e-06 1.6257e-06 1.45691e-06 1.6311e-06 1.0048e-06 8.00155e-07 5.44307e-07 6.2447e-07 7.65957e-07 6.24363e-07 5.44724e-07 8.00839e-07 1.00434e-06 1.00259e-06 7.98139e-07 5.42991e-07 6.24638e-07 7.66358e-07 6.24666e-07 5.43457e-07 7.98862e-07 1.00424e-06 1.62675e-06 1.45507e-06 1.62651e-06 2.29485e-06 2.61794e-06 2.29425e-06 1.62587e-06 1.45548e-06 1.62685e-06 2.07906e-06 2.57341e-06 3.81267e-06 5.32337e-06 5.9682e-06 5.32184e-06 3.81171e-06 2.57337e-06 2.07792e-06 2.17182e-06 2.79537e-06 4.3772e-06 6.75182e-06 7.98988e-06 6.7526e-06 4.37872e-06 2.79503e-06 2.16544e-06 2.49334e-06 2.83801e-06 3.15313e-06 4.36226e-06 5.31755e-06 4.3652e-06 3.15575e-06 2.83612e-06 2.48443e-06 1.67956e-06 1.91865e-06 1.66095e-06 1.59264e-06 1.92806e-06 1.59342e-06 1.66151e-06 1.91689e-06 1.67577e-06 6.33356e-07 6.74426e-07 5.93884e-07 3.5523e-07 3.53272e-07 3.54758e-07 5.92893e-07 6.73639e-07 6.3247e-07 1.53474e-07 3.2596e-08 1.21304e-07 1.39146e-07 1.20687e-07 1.39064e-07 1.2073e-07 3.2122e-08 1.55929e-07 4.29963e-07 2.6248e-07 1.55783e-07 1.43488e-07 1.45603e-07 1.43467e-07 1.55196e-07 2.62241e-07 4.3145e-07 6.04894e-07 7.30886e-07 5.93224e-07 4.10166e-07 4.29758e-07 4.11055e-07 5.95207e-07 7.32225e-07 6.06388e-07 3.31861e-07 3.68322e-07 5.51696e-07 1.02472e-06 1.29642e-06 1.02052e-06 5.49628e-07 3.7148e-07 3.35222e-07 1.70357e-07 8.01233e-07 2.18086e-06 3.83652e-06 4.55543e-06 3.82695e-06 2.17169e-06 7.95373e-07 1.6603e-07 1.26755e-06 3.32068e-06 6.7942e-06 1.05344e-05 1.22282e-05 1.05327e-05 6.78839e-06 3.31299e-06 1.26253e-06 2.45966e-06 5.83324e-06 1.12612e-05 1.68793e-05 1.93316e-05 1.6882e-05 1.12591e-05 5.82353e-06 2.44973e-06 2.43041e-06 5.17623e-06 9.90315e-06 1.46483e-05 1.6553e-05 1.46531e-05 9.90267e-06 5.16703e-06 2.42035e-06 2.24717e-06 3.55825e-06 5.39931e-06 7.27802e-06 8.05177e-06 7.28573e-06 5.39746e-06 3.55021e-06 2.23829e-06 1.52097e-06 2.46811e-06 3.49177e-06 4.1341e-06 4.4063e-06 4.13229e-06 3.48527e-06 2.45967e-06 1.51169e-06 8.43105e-07 8.52234e-07 8.22218e-07 8.88057e-07 8.99884e-07 8.90062e-07 8.2381e-07 8.53629e-07 8.41551e-07 6.06196e-07 7.30242e-07 5.91681e-07 4.10214e-07 4.30975e-07 4.10432e-07 5.9443e-07 7.33026e-07 6.08093e-07 3.33088e-07 3.68455e-07 5.51996e-07 1.02482e-06 1.2964e-06 1.02072e-06 5.49708e-07 3.71095e-07 3.3537e-07 1.69343e-07 8.01228e-07 2.18081e-06 3.83644e-06 4.55547e-06 3.82695e-06 2.17169e-06 7.95448e-07 1.65143e-07 1.2667e-06 3.32062e-06 6.79433e-06 1.05346e-05 1.2228e-05 1.05325e-05 6.78817e-06 3.31273e-06 1.26093e-06 2.45756e-06 5.8332e-06 1.12616e-05 1.68795e-05 1.93314e-05 1.68815e-05 1.12587e-05 5.82298e-06 2.44666e-06 2.42852e-06 5.176e-06 9.90318e-06 1.46484e-05 1.65528e-05 1.46528e-05 9.90239e-06 5.16658e-06 2.4174e-06 2.2453e-06 3.55813e-06 5.39908e-06 7.27785e-06 8.05191e-06 7.28586e-06 5.39759e-06 3.54999e-06 2.23523e-06 1.51873e-06 2.46787e-06 3.49146e-06 4.13411e-06 4.40643e-06 4.13229e-06 3.48539e-06 2.45959e-06 1.51148e-06 8.43273e-07 8.51845e-07 8.20674e-07 8.8683e-07 8.99722e-07 8.90752e-07 8.24634e-07 8.53228e-07 8.39595e-07

