# vtk DataFile Version 3.0
# File generated by the BrokkrIE Library (By Jake J. Harmon) on Thu Oct 10 10:48:03 2024

ASCII
DATASET UNSTRUCTURED_GRID

POINTS 576 double
-0.5 -0.5 -0.5 
-0.5 -0.444444 -0.5 
-0.5 -0.388889 -0.5 
-0.5 -0.333333 -0.5 
-0.5 -0.5 -0.444444 
-0.5 -0.444444 -0.444444 
-0.5 -0.388889 -0.444444 
-0.5 -0.333333 -0.444444 
-0.5 -0.5 -0.388889 
-0.5 -0.444444 -0.388889 
-0.5 -0.388889 -0.388889 
-0.5 -0.333333 -0.388889 
-0.5 -0.5 -0.333333 
-0.5 -0.444444 -0.333333 
-0.5 -0.388889 -0.333333 
-0.5 -0.333333 -0.333333 
-0.5 -0.5 -0.333333 
-0.5 -0.444444 -0.333333 
-0.5 -0.388889 -0.333333 
-0.5 -0.333333 -0.333333 
-0.5 -0.5 -0.277778 
-0.5 -0.444444 -0.277778 
-0.5 -0.388889 -0.277778 
-0.5 -0.333333 -0.277778 
-0.5 -0.5 -0.222222 
-0.5 -0.444444 -0.222222 
-0.5 -0.388889 -0.222222 
-0.5 -0.333333 -0.222222 
-0.5 -0.5 -0.166667 
-0.5 -0.444444 -0.166667 
-0.5 -0.388889 -0.166667 
-0.5 -0.333333 -0.166667 
-0.5 -0.5 -0.166667 
-0.5 -0.444444 -0.166667 
-0.5 -0.388889 -0.166667 
-0.5 -0.333333 -0.166667 
-0.5 -0.5 -0.111111 
-0.5 -0.444444 -0.111111 
-0.5 -0.388889 -0.111111 
-0.5 -0.333333 -0.111111 
-0.5 -0.5 -0.0555556 
-0.5 -0.444444 -0.0555556 
-0.5 -0.388889 -0.0555556 
-0.5 -0.333333 -0.0555556 
-0.5 -0.5 0 
-0.5 -0.444444 0 
-0.5 -0.388889 0 
-0.5 -0.333333 0 
-0.5 -0.5 0 
-0.5 -0.444444 0 
-0.5 -0.388889 0 
-0.5 -0.333333 0 
-0.5 -0.5 0.0555556 
-0.5 -0.444444 0.0555556 
-0.5 -0.388889 0.0555556 
-0.5 -0.333333 0.0555556 
-0.5 -0.5 0.111111 
-0.5 -0.444444 0.111111 
-0.5 -0.388889 0.111111 
-0.5 -0.333333 0.111111 
-0.5 -0.5 0.166667 
-0.5 -0.444444 0.166667 
-0.5 -0.388889 0.166667 
-0.5 -0.333333 0.166667 
-0.5 -0.5 0.166667 
-0.5 -0.444444 0.166667 
-0.5 -0.388889 0.166667 
-0.5 -0.333333 0.166667 
-0.5 -0.5 0.222222 
-0.5 -0.444444 0.222222 
-0.5 -0.388889 0.222222 
-0.5 -0.333333 0.222222 
-0.5 -0.5 0.277778 
-0.5 -0.444444 0.277778 
-0.5 -0.388889 0.277778 
-0.5 -0.333333 0.277778 
-0.5 -0.5 0.333333 
-0.5 -0.444444 0.333333 
-0.5 -0.388889 0.333333 
-0.5 -0.333333 0.333333 
-0.5 -0.5 0.333333 
-0.5 -0.444444 0.333333 
-0.5 -0.388889 0.333333 
-0.5 -0.333333 0.333333 
-0.5 -0.5 0.388889 
-0.5 -0.444444 0.388889 
-0.5 -0.388889 0.388889 
-0.5 -0.333333 0.388889 
-0.5 -0.5 0.444444 
-0.5 -0.444444 0.444444 
-0.5 -0.388889 0.444444 
-0.5 -0.333333 0.444444 
-0.5 -0.5 0.5 
-0.5 -0.444444 0.5 
-0.5 -0.388889 0.5 
-0.5 -0.333333 0.5 
-0.5 -0.333333 -0.5 
-0.5 -0.277778 -0.5 
-0.5 -0.222222 -0.5 
-0.5 -0.166667 -0.5 
-0.5 -0.333333 -0.444444 
-0.5 -0.277778 -0.444444 
-0.5 -0.222222 -0.444444 
-0.5 -0.166667 -0.444444 
-0.5 -0.333333 -0.388889 
-0.5 -0.277778 -0.388889 
-0.5 -0.222222 -0.388889 
-0.5 -0.166667 -0.388889 
-0.5 -0.333333 -0.333333 
-0.5 -0.277778 -0.333333 
-0.5 -0.222222 -0.333333 
-0.5 -0.166667 -0.333333 
-0.5 -0.333333 -0.333333 
-0.5 -0.277778 -0.333333 
-0.5 -0.222222 -0.333333 
-0.5 -0.166667 -0.333333 
-0.5 -0.333333 -0.277778 
-0.5 -0.277778 -0.277778 
-0.5 -0.222222 -0.277778 
-0.5 -0.166667 -0.277778 
-0.5 -0.333333 -0.222222 
-0.5 -0.277778 -0.222222 
-0.5 -0.222222 -0.222222 
-0.5 -0.166667 -0.222222 
-0.5 -0.333333 -0.166667 
-0.5 -0.277778 -0.166667 
-0.5 -0.222222 -0.166667 
-0.5 -0.166667 -0.166667 
-0.5 -0.333333 -0.166667 
-0.5 -0.277778 -0.166667 
-0.5 -0.222222 -0.166667 
-0.5 -0.166667 -0.166667 
-0.5 -0.333333 -0.111111 
-0.5 -0.277778 -0.111111 
-0.5 -0.222222 -0.111111 
-0.5 -0.166667 -0.111111 
-0.5 -0.333333 -0.0555556 
-0.5 -0.277778 -0.0555556 
-0.5 -0.222222 -0.0555556 
-0.5 -0.166667 -0.0555556 
-0.5 -0.333333 0 
-0.5 -0.277778 0 
-0.5 -0.222222 0 
-0.5 -0.166667 0 
-0.5 -0.333333 0 
-0.5 -0.277778 0 
-0.5 -0.222222 0 
-0.5 -0.166667 0 
-0.5 -0.333333 0.0555556 
-0.5 -0.277778 0.0555556 
-0.5 -0.222222 0.0555556 
-0.5 -0.166667 0.0555556 
-0.5 -0.333333 0.111111 
-0.5 -0.277778 0.111111 
-0.5 -0.222222 0.111111 
-0.5 -0.166667 0.111111 
-0.5 -0.333333 0.166667 
-0.5 -0.277778 0.166667 
-0.5 -0.222222 0.166667 
-0.5 -0.166667 0.166667 
-0.5 -0.333333 0.166667 
-0.5 -0.277778 0.166667 
-0.5 -0.222222 0.166667 
-0.5 -0.166667 0.166667 
-0.5 -0.333333 0.222222 
-0.5 -0.277778 0.222222 
-0.5 -0.222222 0.222222 
-0.5 -0.166667 0.222222 
-0.5 -0.333333 0.277778 
-0.5 -0.277778 0.277778 
-0.5 -0.222222 0.277778 
-0.5 -0.166667 0.277778 
-0.5 -0.333333 0.333333 
-0.5 -0.277778 0.333333 
-0.5 -0.222222 0.333333 
-0.5 -0.166667 0.333333 
-0.5 -0.333333 0.333333 
-0.5 -0.277778 0.333333 
-0.5 -0.222222 0.333333 
-0.5 -0.166667 0.333333 
-0.5 -0.333333 0.388889 
-0.5 -0.277778 0.388889 
-0.5 -0.222222 0.388889 
-0.5 -0.166667 0.388889 
-0.5 -0.333333 0.444444 
-0.5 -0.277778 0.444444 
-0.5 -0.222222 0.444444 
-0.5 -0.166667 0.444444 
-0.5 -0.333333 0.5 
-0.5 -0.277778 0.5 
-0.5 -0.222222 0.5 
-0.5 -0.166667 0.5 
-0.5 -0.166667 -0.5 
-0.5 -0.111111 -0.5 
-0.5 -0.0555556 -0.5 
-0.5 0 -0.5 
-0.5 -0.166667 -0.444444 
-0.5 -0.111111 -0.444444 
-0.5 -0.0555556 -0.444444 
-0.5 0 -0.444444 
-0.5 -0.166667 -0.388889 
-0.5 -0.111111 -0.388889 
-0.5 -0.0555556 -0.388889 
-0.5 0 -0.388889 
-0.5 -0.166667 -0.333333 
-0.5 -0.111111 -0.333333 
-0.5 -0.0555556 -0.333333 
-0.5 0 -0.333333 
-0.5 -0.166667 -0.333333 
-0.5 -0.111111 -0.333333 
-0.5 -0.0555556 -0.333333 
-0.5 0 -0.333333 
-0.5 -0.166667 -0.277778 
-0.5 -0.111111 -0.277778 
-0.5 -0.0555556 -0.277778 
-0.5 0 -0.277778 
-0.5 -0.166667 -0.222222 
-0.5 -0.111111 -0.222222 
-0.5 -0.0555556 -0.222222 
-0.5 0 -0.222222 
-0.5 -0.166667 -0.166667 
-0.5 -0.111111 -0.166667 
-0.5 -0.0555556 -0.166667 
-0.5 0 -0.166667 
-0.5 -0.166667 -0.166667 
-0.5 -0.111111 -0.166667 
-0.5 -0.0555556 -0.166667 
-0.5 0 -0.166667 
-0.5 -0.166667 -0.111111 
-0.5 -0.111111 -0.111111 
-0.5 -0.0555556 -0.111111 
-0.5 0 -0.111111 
-0.5 -0.166667 -0.0555556 
-0.5 -0.111111 -0.0555556 
-0.5 -0.0555556 -0.0555556 
-0.5 0 -0.0555556 
-0.5 -0.166667 0 
-0.5 -0.111111 0 
-0.5 -0.0555556 0 
-0.5 0 0 
-0.5 -0.166667 0 
-0.5 -0.111111 0 
-0.5 -0.0555556 0 
-0.5 0 0 
-0.5 -0.166667 0.0555556 
-0.5 -0.111111 0.0555556 
-0.5 -0.0555556 0.0555556 
-0.5 0 0.0555556 
-0.5 -0.166667 0.111111 
-0.5 -0.111111 0.111111 
-0.5 -0.0555556 0.111111 
-0.5 0 0.111111 
-0.5 -0.166667 0.166667 
-0.5 -0.111111 0.166667 
-0.5 -0.0555556 0.166667 
-0.5 0 0.166667 
-0.5 -0.166667 0.166667 
-0.5 -0.111111 0.166667 
-0.5 -0.0555556 0.166667 
-0.5 0 0.166667 
-0.5 -0.166667 0.222222 
-0.5 -0.111111 0.222222 
-0.5 -0.0555556 0.222222 
-0.5 0 0.222222 
-0.5 -0.166667 0.277778 
-0.5 -0.111111 0.277778 
-0.5 -0.0555556 0.277778 
-0.5 0 0.277778 
-0.5 -0.166667 0.333333 
-0.5 -0.111111 0.333333 
-0.5 -0.0555556 0.333333 
-0.5 0 0.333333 
-0.5 -0.166667 0.333333 
-0.5 -0.111111 0.333333 
-0.5 -0.0555556 0.333333 
-0.5 0 0.333333 
-0.5 -0.166667 0.388889 
-0.5 -0.111111 0.388889 
-0.5 -0.0555556 0.388889 
-0.5 0 0.388889 
-0.5 -0.166667 0.444444 
-0.5 -0.111111 0.444444 
-0.5 -0.0555556 0.444444 
-0.5 0 0.444444 
-0.5 -0.166667 0.5 
-0.5 -0.111111 0.5 
-0.5 -0.0555556 0.5 
-0.5 0 0.5 
-0.5 0 -0.5 
-0.5 0.0555556 -0.5 
-0.5 0.111111 -0.5 
-0.5 0.166667 -0.5 
-0.5 0 -0.444444 
-0.5 0.0555556 -0.444444 
-0.5 0.111111 -0.444444 
-0.5 0.166667 -0.444444 
-0.5 0 -0.388889 
-0.5 0.0555556 -0.388889 
-0.5 0.111111 -0.388889 
-0.5 0.166667 -0.388889 
-0.5 0 -0.333333 
-0.5 0.0555556 -0.333333 
-0.5 0.111111 -0.333333 
-0.5 0.166667 -0.333333 
-0.5 0 -0.333333 
-0.5 0.0555556 -0.333333 
-0.5 0.111111 -0.333333 
-0.5 0.166667 -0.333333 
-0.5 0 -0.277778 
-0.5 0.0555556 -0.277778 
-0.5 0.111111 -0.277778 
-0.5 0.166667 -0.277778 
-0.5 0 -0.222222 
-0.5 0.0555556 -0.222222 
-0.5 0.111111 -0.222222 
-0.5 0.166667 -0.222222 
-0.5 0 -0.166667 
-0.5 0.0555556 -0.166667 
-0.5 0.111111 -0.166667 
-0.5 0.166667 -0.166667 
-0.5 0 -0.166667 
-0.5 0.0555556 -0.166667 
-0.5 0.111111 -0.166667 
-0.5 0.166667 -0.166667 
-0.5 0 -0.111111 
-0.5 0.0555556 -0.111111 
-0.5 0.111111 -0.111111 
-0.5 0.166667 -0.111111 
-0.5 0 -0.0555556 
-0.5 0.0555556 -0.0555556 
-0.5 0.111111 -0.0555556 
-0.5 0.166667 -0.0555556 
-0.5 0 0 
-0.5 0.0555556 0 
-0.5 0.111111 0 
-0.5 0.166667 0 
-0.5 0 0 
-0.5 0.0555556 0 
-0.5 0.111111 0 
-0.5 0.166667 0 
-0.5 0 0.0555556 
-0.5 0.0555556 0.0555556 
-0.5 0.111111 0.0555556 
-0.5 0.166667 0.0555556 
-0.5 0 0.111111 
-0.5 0.0555556 0.111111 
-0.5 0.111111 0.111111 
-0.5 0.166667 0.111111 
-0.5 0 0.166667 
-0.5 0.0555556 0.166667 
-0.5 0.111111 0.166667 
-0.5 0.166667 0.166667 
-0.5 0 0.166667 
-0.5 0.0555556 0.166667 
-0.5 0.111111 0.166667 
-0.5 0.166667 0.166667 
-0.5 0 0.222222 
-0.5 0.0555556 0.222222 
-0.5 0.111111 0.222222 
-0.5 0.166667 0.222222 
-0.5 0 0.277778 
-0.5 0.0555556 0.277778 
-0.5 0.111111 0.277778 
-0.5 0.166667 0.277778 
-0.5 0 0.333333 
-0.5 0.0555556 0.333333 
-0.5 0.111111 0.333333 
-0.5 0.166667 0.333333 
-0.5 0 0.333333 
-0.5 0.0555556 0.333333 
-0.5 0.111111 0.333333 
-0.5 0.166667 0.333333 
-0.5 0 0.388889 
-0.5 0.0555556 0.388889 
-0.5 0.111111 0.388889 
-0.5 0.166667 0.388889 
-0.5 0 0.444444 
-0.5 0.0555556 0.444444 
-0.5 0.111111 0.444444 
-0.5 0.166667 0.444444 
-0.5 0 0.5 
-0.5 0.0555556 0.5 
-0.5 0.111111 0.5 
-0.5 0.166667 0.5 
-0.5 0.166667 -0.5 
-0.5 0.222222 -0.5 
-0.5 0.277778 -0.5 
-0.5 0.333333 -0.5 
-0.5 0.166667 -0.444444 
-0.5 0.222222 -0.444444 
-0.5 0.277778 -0.444444 
-0.5 0.333333 -0.444444 
-0.5 0.166667 -0.388889 
-0.5 0.222222 -0.388889 
-0.5 0.277778 -0.388889 
-0.5 0.333333 -0.388889 
-0.5 0.166667 -0.333333 
-0.5 0.222222 -0.333333 
-0.5 0.277778 -0.333333 
-0.5 0.333333 -0.333333 
-0.5 0.166667 -0.333333 
-0.5 0.222222 -0.333333 
-0.5 0.277778 -0.333333 
-0.5 0.333333 -0.333333 
-0.5 0.166667 -0.277778 
-0.5 0.222222 -0.277778 
-0.5 0.277778 -0.277778 
-0.5 0.333333 -0.277778 
-0.5 0.166667 -0.222222 
-0.5 0.222222 -0.222222 
-0.5 0.277778 -0.222222 
-0.5 0.333333 -0.222222 
-0.5 0.166667 -0.166667 
-0.5 0.222222 -0.166667 
-0.5 0.277778 -0.166667 
-0.5 0.333333 -0.166667 
-0.5 0.166667 -0.166667 
-0.5 0.222222 -0.166667 
-0.5 0.277778 -0.166667 
-0.5 0.333333 -0.166667 
-0.5 0.166667 -0.111111 
-0.5 0.222222 -0.111111 
-0.5 0.277778 -0.111111 
-0.5 0.333333 -0.111111 
-0.5 0.166667 -0.0555556 
-0.5 0.222222 -0.0555556 
-0.5 0.277778 -0.0555556 
-0.5 0.333333 -0.0555556 
-0.5 0.166667 0 
-0.5 0.222222 0 
-0.5 0.277778 0 
-0.5 0.333333 0 
-0.5 0.166667 0 
-0.5 0.222222 0 
-0.5 0.277778 0 
-0.5 0.333333 0 
-0.5 0.166667 0.0555556 
-0.5 0.222222 0.0555556 
-0.5 0.277778 0.0555556 
-0.5 0.333333 0.0555556 
-0.5 0.166667 0.111111 
-0.5 0.222222 0.111111 
-0.5 0.277778 0.111111 
-0.5 0.333333 0.111111 
-0.5 0.166667 0.166667 
-0.5 0.222222 0.166667 
-0.5 0.277778 0.166667 
-0.5 0.333333 0.166667 
-0.5 0.166667 0.166667 
-0.5 0.222222 0.166667 
-0.5 0.277778 0.166667 
-0.5 0.333333 0.166667 
-0.5 0.166667 0.222222 
-0.5 0.222222 0.222222 
-0.5 0.277778 0.222222 
-0.5 0.333333 0.222222 
-0.5 0.166667 0.277778 
-0.5 0.222222 0.277778 
-0.5 0.277778 0.277778 
-0.5 0.333333 0.277778 
-0.5 0.166667 0.333333 
-0.5 0.222222 0.333333 
-0.5 0.277778 0.333333 
-0.5 0.333333 0.333333 
-0.5 0.166667 0.333333 
-0.5 0.222222 0.333333 
-0.5 0.277778 0.333333 
-0.5 0.333333 0.333333 
-0.5 0.166667 0.388889 
-0.5 0.222222 0.388889 
-0.5 0.277778 0.388889 
-0.5 0.333333 0.388889 
-0.5 0.166667 0.444444 
-0.5 0.222222 0.444444 
-0.5 0.277778 0.444444 
-0.5 0.333333 0.444444 
-0.5 0.166667 0.5 
-0.5 0.222222 0.5 
-0.5 0.277778 0.5 
-0.5 0.333333 0.5 
-0.5 0.333333 -0.5 
-0.5 0.388889 -0.5 
-0.5 0.444444 -0.5 
-0.5 0.5 -0.5 
-0.5 0.333333 -0.444444 
-0.5 0.388889 -0.444444 
-0.5 0.444444 -0.444444 
-0.5 0.5 -0.444444 
-0.5 0.333333 -0.388889 
-0.5 0.388889 -0.388889 
-0.5 0.444444 -0.388889 
-0.5 0.5 -0.388889 
-0.5 0.333333 -0.333333 
-0.5 0.388889 -0.333333 
-0.5 0.444444 -0.333333 
-0.5 0.5 -0.333333 
-0.5 0.333333 -0.333333 
-0.5 0.388889 -0.333333 
-0.5 0.444444 -0.333333 
-0.5 0.5 -0.333333 
-0.5 0.333333 -0.277778 
-0.5 0.388889 -0.277778 
-0.5 0.444444 -0.277778 
-0.5 0.5 -0.277778 
-0.5 0.333333 -0.222222 
-0.5 0.388889 -0.222222 
-0.5 0.444444 -0.222222 
-0.5 0.5 -0.222222 
-0.5 0.333333 -0.166667 
-0.5 0.388889 -0.166667 
-0.5 0.444444 -0.166667 
-0.5 0.5 -0.166667 
-0.5 0.333333 -0.166667 
-0.5 0.388889 -0.166667 
-0.5 0.444444 -0.166667 
-0.5 0.5 -0.166667 
-0.5 0.333333 -0.111111 
-0.5 0.388889 -0.111111 
-0.5 0.444444 -0.111111 
-0.5 0.5 -0.111111 
-0.5 0.333333 -0.0555556 
-0.5 0.388889 -0.0555556 
-0.5 0.444444 -0.0555556 
-0.5 0.5 -0.0555556 
-0.5 0.333333 0 
-0.5 0.388889 0 
-0.5 0.444444 0 
-0.5 0.5 0 
-0.5 0.333333 0 
-0.5 0.388889 0 
-0.5 0.444444 0 
-0.5 0.5 0 
-0.5 0.333333 0.0555556 
-0.5 0.388889 0.0555556 
-0.5 0.444444 0.0555556 
-0.5 0.5 0.0555556 
-0.5 0.333333 0.111111 
-0.5 0.388889 0.111111 
-0.5 0.444444 0.111111 
-0.5 0.5 0.111111 
-0.5 0.333333 0.166667 
-0.5 0.388889 0.166667 
-0.5 0.444444 0.166667 
-0.5 0.5 0.166667 
-0.5 0.333333 0.166667 
-0.5 0.388889 0.166667 
-0.5 0.444444 0.166667 
-0.5 0.5 0.166667 
-0.5 0.333333 0.222222 
-0.5 0.388889 0.222222 
-0.5 0.444444 0.222222 
-0.5 0.5 0.222222 
-0.5 0.333333 0.277778 
-0.5 0.388889 0.277778 
-0.5 0.444444 0.277778 
-0.5 0.5 0.277778 
-0.5 0.333333 0.333333 
-0.5 0.388889 0.333333 
-0.5 0.444444 0.333333 
-0.5 0.5 0.333333 
-0.5 0.333333 0.333333 
-0.5 0.388889 0.333333 
-0.5 0.444444 0.333333 
-0.5 0.5 0.333333 
-0.5 0.333333 0.388889 
-0.5 0.388889 0.388889 
-0.5 0.444444 0.388889 
-0.5 0.5 0.388889 
-0.5 0.333333 0.444444 
-0.5 0.388889 0.444444 
-0.5 0.444444 0.444444 
-0.5 0.5 0.444444 
-0.5 0.333333 0.5 
-0.5 0.388889 0.5 
-0.5 0.444444 0.5 
-0.5 0.5 0.5 
CELLS 36 612

16	0	3	15	12	1	2	7	11	13	14	4	8	5	6	9	10
16	16	19	31	28	17	18	23	27	29	30	20	24	21	22	25	26
16	32	35	47	44	33	34	39	43	45	46	36	40	37	38	41	42
16	48	51	63	60	49	50	55	59	61	62	52	56	53	54	57	58
16	64	67	79	76	65	66	71	75	77	78	68	72	69	70	73	74
16	80	83	95	92	81	82	87	91	93	94	84	88	85	86	89	90
16	96	99	111	108	97	98	103	107	109	110	100	104	101	102	105	106
16	112	115	127	124	113	114	119	123	125	126	116	120	117	118	121	122
16	128	131	143	140	129	130	135	139	141	142	132	136	133	134	137	138
16	144	147	159	156	145	146	151	155	157	158	148	152	149	150	153	154
16	160	163	175	172	161	162	167	171	173	174	164	168	165	166	169	170
16	176	179	191	188	177	178	183	187	189	190	180	184	181	182	185	186
16	192	195	207	204	193	194	199	203	205	206	196	200	197	198	201	202
16	208	211	223	220	209	210	215	219	221	222	212	216	213	214	217	218
16	224	227	239	236	225	226	231	235	237	238	228	232	229	230	233	234
16	240	243	255	252	241	242	247	251	253	254	244	248	245	246	249	250
16	256	259	271	268	257	258	263	267	269	270	260	264	261	262	265	266
16	272	275	287	284	273	274	279	283	285	286	276	280	277	278	281	282
16	288	291	303	300	289	290	295	299	301	302	292	296	293	294	297	298
16	304	307	319	316	305	306	311	315	317	318	308	312	309	310	313	314
16	320	323	335	332	321	322	327	331	333	334	324	328	325	326	329	330
16	336	339	351	348	337	338	343	347	349	350	340	344	341	342	345	346
16	352	355	367	364	353	354	359	363	365	366	356	360	357	358	361	362
16	368	371	383	380	369	370	375	379	381	382	372	376	373	374	377	378
16	384	387	399	396	385	386	391	395	397	398	388	392	389	390	393	394
16	400	403	415	412	401	402	407	411	413	414	404	408	405	406	409	410
16	416	419	431	428	417	418	423	427	429	430	420	424	421	422	425	426
16	432	435	447	444	433	434	439	443	445	446	436	440	437	438	441	442
16	448	451	463	460	449	450	455	459	461	462	452	456	453	454	457	458
16	464	467	479	476	465	466	471	475	477	478	468	472	469	470	473	474
16	480	483	495	492	481	482	487	491	493	494	484	488	485	486	489	490
16	496	499	511	508	497	498	503	507	509	510	500	504	501	502	505	506
16	512	515	527	524	513	514	519	523	525	526	516	520	517	518	521	522
16	528	531	543	540	529	530	535	539	541	542	532	536	533	534	537	538
16	544	547	559	556	545	546	551	555	557	558	548	552	549	550	553	554
16	560	563	575	572	561	562	567	571	573	574	564	568	565	566	569	570

CELL_TYPES 36
 70
 70
 70
 70
 70
 70
 70
 70
 70
 70
 70
 70
 70
 70
 70
 70
 70
 70
 70
 70
 70
 70
 70
 70
 70
 70
 70
 70
 70
 70
 70
 70
 70
 70
 70
 70
CELL_DATA 36
SCALARS fe_degrees double 1
LOOKUP_TABLE default
 1 1 1 1 1 1 1 1 1 1 1 1 1 1 1 1 1 1 1 1 1 1 1 1 1 1 1 1 1 1 1 1 1 1 1 1
SCALARS dofs_per_cell double 1
LOOKUP_TABLE default
 8 10 10 10 10 8 10 12 12 12 12 10 10 12 12 12 12 10 10 12 12 12 12 10 10 12 12 12 12 10 8 10 10 10 10 8
SCALARS abs_qoi_error double 1
LOOKUP_TABLE default
 0.00245157 0.00149442 0.0011643 0.00117852 0.0011749 0.00206383 0.00211446 0.000421171 0.000657242 0.000689251 0.000305286 0.00181806 0.001958 0.000994715 0.000959859 0.000947513 0.000903017 0.0017094 0.00195831 0.000819926 0.000775506 0.000767354 0.000715339 0.00171654 0.00216522 0.000633651 0.000780155 0.000808426 0.000534715 0.00186117 0.00224028 0.00167939 0.00140857 0.00141949 0.00141136 0.00187471

