# vtk DataFile Version 3.0
# File generated by the BrokkrIE Library (By Jake J. Harmon) on Fri Nov 15 05:57:13 2024

ASCII
DATASET UNSTRUCTURED_GRID

POINTS 784 double
-0.5 -0.5 -0.5 
-0.5 -0.452381 -0.5 
-0.5 -0.404762 -0.5 
-0.5 -0.357143 -0.5 
-0.5 -0.5 -0.452381 
-0.5 -0.452381 -0.452381 
-0.5 -0.404762 -0.452381 
-0.5 -0.357143 -0.452381 
-0.5 -0.5 -0.404762 
-0.5 -0.452381 -0.404762 
-0.5 -0.404762 -0.404762 
-0.5 -0.357143 -0.404762 
-0.5 -0.5 -0.357143 
-0.5 -0.452381 -0.357143 
-0.5 -0.404762 -0.357143 
-0.5 -0.357143 -0.357143 
-0.5 -0.5 -0.357143 
-0.5 -0.452381 -0.357143 
-0.5 -0.404762 -0.357143 
-0.5 -0.357143 -0.357143 
-0.5 -0.5 -0.309524 
-0.5 -0.452381 -0.309524 
-0.5 -0.404762 -0.309524 
-0.5 -0.357143 -0.309524 
-0.5 -0.5 -0.261905 
-0.5 -0.452381 -0.261905 
-0.5 -0.404762 -0.261905 
-0.5 -0.357143 -0.261905 
-0.5 -0.5 -0.214286 
-0.5 -0.452381 -0.214286 
-0.5 -0.404762 -0.214286 
-0.5 -0.357143 -0.214286 
-0.5 -0.5 -0.214286 
-0.5 -0.452381 -0.214286 
-0.5 -0.404762 -0.214286 
-0.5 -0.357143 -0.214286 
-0.5 -0.5 -0.166667 
-0.5 -0.452381 -0.166667 
-0.5 -0.404762 -0.166667 
-0.5 -0.357143 -0.166667 
-0.5 -0.5 -0.119048 
-0.5 -0.452381 -0.119048 
-0.5 -0.404762 -0.119048 
-0.5 -0.357143 -0.119048 
-0.5 -0.5 -0.0714286 
-0.5 -0.452381 -0.0714286 
-0.5 -0.404762 -0.0714286 
-0.5 -0.357143 -0.0714286 
-0.5 -0.5 -0.0714286 
-0.5 -0.452381 -0.0714286 
-0.5 -0.404762 -0.0714286 
-0.5 -0.357143 -0.0714286 
-0.5 -0.5 -0.0238095 
-0.5 -0.452381 -0.0238095 
-0.5 -0.404762 -0.0238095 
-0.5 -0.357143 -0.0238095 
-0.5 -0.5 0.0238095 
-0.5 -0.452381 0.0238095 
-0.5 -0.404762 0.0238095 
-0.5 -0.357143 0.0238095 
-0.5 -0.5 0.0714286 
-0.5 -0.452381 0.0714286 
-0.5 -0.404762 0.0714286 
-0.5 -0.357143 0.0714286 
-0.5 -0.5 0.0714286 
-0.5 -0.452381 0.0714286 
-0.5 -0.404762 0.0714286 
-0.5 -0.357143 0.0714286 
-0.5 -0.5 0.119048 
-0.5 -0.452381 0.119048 
-0.5 -0.404762 0.119048 
-0.5 -0.357143 0.119048 
-0.5 -0.5 0.166667 
-0.5 -0.452381 0.166667 
-0.5 -0.404762 0.166667 
-0.5 -0.357143 0.166667 
-0.5 -0.5 0.214286 
-0.5 -0.452381 0.214286 
-0.5 -0.404762 0.214286 
-0.5 -0.357143 0.214286 
-0.5 -0.5 0.214286 
-0.5 -0.452381 0.214286 
-0.5 -0.404762 0.214286 
-0.5 -0.357143 0.214286 
-0.5 -0.5 0.261905 
-0.5 -0.452381 0.261905 
-0.5 -0.404762 0.261905 
-0.5 -0.357143 0.261905 
-0.5 -0.5 0.309524 
-0.5 -0.452381 0.309524 
-0.5 -0.404762 0.309524 
-0.5 -0.357143 0.309524 
-0.5 -0.5 0.357143 
-0.5 -0.452381 0.357143 
-0.5 -0.404762 0.357143 
-0.5 -0.357143 0.357143 
-0.5 -0.5 0.357143 
-0.5 -0.452381 0.357143 
-0.5 -0.404762 0.357143 
-0.5 -0.357143 0.357143 
-0.5 -0.5 0.404762 
-0.5 -0.452381 0.404762 
-0.5 -0.404762 0.404762 
-0.5 -0.357143 0.404762 
-0.5 -0.5 0.452381 
-0.5 -0.452381 0.452381 
-0.5 -0.404762 0.452381 
-0.5 -0.357143 0.452381 
-0.5 -0.5 0.5 
-0.5 -0.452381 0.5 
-0.5 -0.404762 0.5 
-0.5 -0.357143 0.5 
-0.5 -0.357143 -0.5 
-0.5 -0.309524 -0.5 
-0.5 -0.261905 -0.5 
-0.5 -0.214286 -0.5 
-0.5 -0.357143 -0.452381 
-0.5 -0.309524 -0.452381 
-0.5 -0.261905 -0.452381 
-0.5 -0.214286 -0.452381 
-0.5 -0.357143 -0.404762 
-0.5 -0.309524 -0.404762 
-0.5 -0.261905 -0.404762 
-0.5 -0.214286 -0.404762 
-0.5 -0.357143 -0.357143 
-0.5 -0.309524 -0.357143 
-0.5 -0.261905 -0.357143 
-0.5 -0.214286 -0.357143 
-0.5 -0.357143 -0.357143 
-0.5 -0.309524 -0.357143 
-0.5 -0.261905 -0.357143 
-0.5 -0.214286 -0.357143 
-0.5 -0.357143 -0.309524 
-0.5 -0.309524 -0.309524 
-0.5 -0.261905 -0.309524 
-0.5 -0.214286 -0.309524 
-0.5 -0.357143 -0.261905 
-0.5 -0.309524 -0.261905 
-0.5 -0.261905 -0.261905 
-0.5 -0.214286 -0.261905 
-0.5 -0.357143 -0.214286 
-0.5 -0.309524 -0.214286 
-0.5 -0.261905 -0.214286 
-0.5 -0.214286 -0.214286 
-0.5 -0.357143 -0.214286 
-0.5 -0.309524 -0.214286 
-0.5 -0.261905 -0.214286 
-0.5 -0.214286 -0.214286 
-0.5 -0.357143 -0.166667 
-0.5 -0.309524 -0.166667 
-0.5 -0.261905 -0.166667 
-0.5 -0.214286 -0.166667 
-0.5 -0.357143 -0.119048 
-0.5 -0.309524 -0.119048 
-0.5 -0.261905 -0.119048 
-0.5 -0.214286 -0.119048 
-0.5 -0.357143 -0.0714286 
-0.5 -0.309524 -0.0714286 
-0.5 -0.261905 -0.0714286 
-0.5 -0.214286 -0.0714286 
-0.5 -0.357143 -0.0714286 
-0.5 -0.309524 -0.0714286 
-0.5 -0.261905 -0.0714286 
-0.5 -0.214286 -0.0714286 
-0.5 -0.357143 -0.0238095 
-0.5 -0.309524 -0.0238095 
-0.5 -0.261905 -0.0238095 
-0.5 -0.214286 -0.0238095 
-0.5 -0.357143 0.0238095 
-0.5 -0.309524 0.0238095 
-0.5 -0.261905 0.0238095 
-0.5 -0.214286 0.0238095 
-0.5 -0.357143 0.0714286 
-0.5 -0.309524 0.0714286 
-0.5 -0.261905 0.0714286 
-0.5 -0.214286 0.0714286 
-0.5 -0.357143 0.0714286 
-0.5 -0.309524 0.0714286 
-0.5 -0.261905 0.0714286 
-0.5 -0.214286 0.0714286 
-0.5 -0.357143 0.119048 
-0.5 -0.309524 0.119048 
-0.5 -0.261905 0.119048 
-0.5 -0.214286 0.119048 
-0.5 -0.357143 0.166667 
-0.5 -0.309524 0.166667 
-0.5 -0.261905 0.166667 
-0.5 -0.214286 0.166667 
-0.5 -0.357143 0.214286 
-0.5 -0.309524 0.214286 
-0.5 -0.261905 0.214286 
-0.5 -0.214286 0.214286 
-0.5 -0.357143 0.214286 
-0.5 -0.309524 0.214286 
-0.5 -0.261905 0.214286 
-0.5 -0.214286 0.214286 
-0.5 -0.357143 0.261905 
-0.5 -0.309524 0.261905 
-0.5 -0.261905 0.261905 
-0.5 -0.214286 0.261905 
-0.5 -0.357143 0.309524 
-0.5 -0.309524 0.309524 
-0.5 -0.261905 0.309524 
-0.5 -0.214286 0.309524 
-0.5 -0.357143 0.357143 
-0.5 -0.309524 0.357143 
-0.5 -0.261905 0.357143 
-0.5 -0.214286 0.357143 
-0.5 -0.357143 0.357143 
-0.5 -0.309524 0.357143 
-0.5 -0.261905 0.357143 
-0.5 -0.214286 0.357143 
-0.5 -0.357143 0.404762 
-0.5 -0.309524 0.404762 
-0.5 -0.261905 0.404762 
-0.5 -0.214286 0.404762 
-0.5 -0.357143 0.452381 
-0.5 -0.309524 0.452381 
-0.5 -0.261905 0.452381 
-0.5 -0.214286 0.452381 
-0.5 -0.357143 0.5 
-0.5 -0.309524 0.5 
-0.5 -0.261905 0.5 
-0.5 -0.214286 0.5 
-0.5 -0.214286 -0.5 
-0.5 -0.166667 -0.5 
-0.5 -0.119048 -0.5 
-0.5 -0.0714286 -0.5 
-0.5 -0.214286 -0.452381 
-0.5 -0.166667 -0.452381 
-0.5 -0.119048 -0.452381 
-0.5 -0.0714286 -0.452381 
-0.5 -0.214286 -0.404762 
-0.5 -0.166667 -0.404762 
-0.5 -0.119048 -0.404762 
-0.5 -0.0714286 -0.404762 
-0.5 -0.214286 -0.357143 
-0.5 -0.166667 -0.357143 
-0.5 -0.119048 -0.357143 
-0.5 -0.0714286 -0.357143 
-0.5 -0.214286 -0.357143 
-0.5 -0.166667 -0.357143 
-0.5 -0.119048 -0.357143 
-0.5 -0.0714286 -0.357143 
-0.5 -0.214286 -0.309524 
-0.5 -0.166667 -0.309524 
-0.5 -0.119048 -0.309524 
-0.5 -0.0714286 -0.309524 
-0.5 -0.214286 -0.261905 
-0.5 -0.166667 -0.261905 
-0.5 -0.119048 -0.261905 
-0.5 -0.0714286 -0.261905 
-0.5 -0.214286 -0.214286 
-0.5 -0.166667 -0.214286 
-0.5 -0.119048 -0.214286 
-0.5 -0.0714286 -0.214286 
-0.5 -0.214286 -0.214286 
-0.5 -0.166667 -0.214286 
-0.5 -0.119048 -0.214286 
-0.5 -0.0714286 -0.214286 
-0.5 -0.214286 -0.166667 
-0.5 -0.166667 -0.166667 
-0.5 -0.119048 -0.166667 
-0.5 -0.0714286 -0.166667 
-0.5 -0.214286 -0.119048 
-0.5 -0.166667 -0.119048 
-0.5 -0.119048 -0.119048 
-0.5 -0.0714286 -0.119048 
-0.5 -0.214286 -0.0714286 
-0.5 -0.166667 -0.0714286 
-0.5 -0.119048 -0.0714286 
-0.5 -0.0714286 -0.0714286 
-0.5 -0.214286 -0.0714286 
-0.5 -0.166667 -0.0714286 
-0.5 -0.119048 -0.0714286 
-0.5 -0.0714286 -0.0714286 
-0.5 -0.214286 -0.0238095 
-0.5 -0.166667 -0.0238095 
-0.5 -0.119048 -0.0238095 
-0.5 -0.0714286 -0.0238095 
-0.5 -0.214286 0.0238095 
-0.5 -0.166667 0.0238095 
-0.5 -0.119048 0.0238095 
-0.5 -0.0714286 0.0238095 
-0.5 -0.214286 0.0714286 
-0.5 -0.166667 0.0714286 
-0.5 -0.119048 0.0714286 
-0.5 -0.0714286 0.0714286 
-0.5 -0.214286 0.0714286 
-0.5 -0.166667 0.0714286 
-0.5 -0.119048 0.0714286 
-0.5 -0.0714286 0.0714286 
-0.5 -0.214286 0.119048 
-0.5 -0.166667 0.119048 
-0.5 -0.119048 0.119048 
-0.5 -0.0714286 0.119048 
-0.5 -0.214286 0.166667 
-0.5 -0.166667 0.166667 
-0.5 -0.119048 0.166667 
-0.5 -0.0714286 0.166667 
-0.5 -0.214286 0.214286 
-0.5 -0.166667 0.214286 
-0.5 -0.119048 0.214286 
-0.5 -0.0714286 0.214286 
-0.5 -0.214286 0.214286 
-0.5 -0.166667 0.214286 
-0.5 -0.119048 0.214286 
-0.5 -0.0714286 0.214286 
-0.5 -0.214286 0.261905 
-0.5 -0.166667 0.261905 
-0.5 -0.119048 0.261905 
-0.5 -0.0714286 0.261905 
-0.5 -0.214286 0.309524 
-0.5 -0.166667 0.309524 
-0.5 -0.119048 0.309524 
-0.5 -0.0714286 0.309524 
-0.5 -0.214286 0.357143 
-0.5 -0.166667 0.357143 
-0.5 -0.119048 0.357143 
-0.5 -0.0714286 0.357143 
-0.5 -0.214286 0.357143 
-0.5 -0.166667 0.357143 
-0.5 -0.119048 0.357143 
-0.5 -0.0714286 0.357143 
-0.5 -0.214286 0.404762 
-0.5 -0.166667 0.404762 
-0.5 -0.119048 0.404762 
-0.5 -0.0714286 0.404762 
-0.5 -0.214286 0.452381 
-0.5 -0.166667 0.452381 
-0.5 -0.119048 0.452381 
-0.5 -0.0714286 0.452381 
-0.5 -0.214286 0.5 
-0.5 -0.166667 0.5 
-0.5 -0.119048 0.5 
-0.5 -0.0714286 0.5 
-0.5 -0.0714286 -0.5 
-0.5 -0.0238095 -0.5 
-0.5 0.0238095 -0.5 
-0.5 0.0714286 -0.5 
-0.5 -0.0714286 -0.452381 
-0.5 -0.0238095 -0.452381 
-0.5 0.0238095 -0.452381 
-0.5 0.0714286 -0.452381 
-0.5 -0.0714286 -0.404762 
-0.5 -0.0238095 -0.404762 
-0.5 0.0238095 -0.404762 
-0.5 0.0714286 -0.404762 
-0.5 -0.0714286 -0.357143 
-0.5 -0.0238095 -0.357143 
-0.5 0.0238095 -0.357143 
-0.5 0.0714286 -0.357143 
-0.5 -0.0714286 -0.357143 
-0.5 -0.0238095 -0.357143 
-0.5 0.0238095 -0.357143 
-0.5 0.0714286 -0.357143 
-0.5 -0.0714286 -0.309524 
-0.5 -0.0238095 -0.309524 
-0.5 0.0238095 -0.309524 
-0.5 0.0714286 -0.309524 
-0.5 -0.0714286 -0.261905 
-0.5 -0.0238095 -0.261905 
-0.5 0.0238095 -0.261905 
-0.5 0.0714286 -0.261905 
-0.5 -0.0714286 -0.214286 
-0.5 -0.0238095 -0.214286 
-0.5 0.0238095 -0.214286 
-0.5 0.0714286 -0.214286 
-0.5 -0.0714286 -0.214286 
-0.5 -0.0238095 -0.214286 
-0.5 0.0238095 -0.214286 
-0.5 0.0714286 -0.214286 
-0.5 -0.0714286 -0.166667 
-0.5 -0.0238095 -0.166667 
-0.5 0.0238095 -0.166667 
-0.5 0.0714286 -0.166667 
-0.5 -0.0714286 -0.119048 
-0.5 -0.0238095 -0.119048 
-0.5 0.0238095 -0.119048 
-0.5 0.0714286 -0.119048 
-0.5 -0.0714286 -0.0714286 
-0.5 -0.0238095 -0.0714286 
-0.5 0.0238095 -0.0714286 
-0.5 0.0714286 -0.0714286 
-0.5 -0.0714286 -0.0714286 
-0.5 -0.0238095 -0.0714286 
-0.5 0.0238095 -0.0714286 
-0.5 0.0714286 -0.0714286 
-0.5 -0.0714286 -0.0238095 
-0.5 -0.0238095 -0.0238095 
-0.5 0.0238095 -0.0238095 
-0.5 0.0714286 -0.0238095 
-0.5 -0.0714286 0.0238095 
-0.5 -0.0238095 0.0238095 
-0.5 0.0238095 0.0238095 
-0.5 0.0714286 0.0238095 
-0.5 -0.0714286 0.0714286 
-0.5 -0.0238095 0.0714286 
-0.5 0.0238095 0.0714286 
-0.5 0.0714286 0.0714286 
-0.5 -0.0714286 0.0714286 
-0.5 -0.0238095 0.0714286 
-0.5 0.0238095 0.0714286 
-0.5 0.0714286 0.0714286 
-0.5 -0.0714286 0.119048 
-0.5 -0.0238095 0.119048 
-0.5 0.0238095 0.119048 
-0.5 0.0714286 0.119048 
-0.5 -0.0714286 0.166667 
-0.5 -0.0238095 0.166667 
-0.5 0.0238095 0.166667 
-0.5 0.0714286 0.166667 
-0.5 -0.0714286 0.214286 
-0.5 -0.0238095 0.214286 
-0.5 0.0238095 0.214286 
-0.5 0.0714286 0.214286 
-0.5 -0.0714286 0.214286 
-0.5 -0.0238095 0.214286 
-0.5 0.0238095 0.214286 
-0.5 0.0714286 0.214286 
-0.5 -0.0714286 0.261905 
-0.5 -0.0238095 0.261905 
-0.5 0.0238095 0.261905 
-0.5 0.0714286 0.261905 
-0.5 -0.0714286 0.309524 
-0.5 -0.0238095 0.309524 
-0.5 0.0238095 0.309524 
-0.5 0.0714286 0.309524 
-0.5 -0.0714286 0.357143 
-0.5 -0.0238095 0.357143 
-0.5 0.0238095 0.357143 
-0.5 0.0714286 0.357143 
-0.5 -0.0714286 0.357143 
-0.5 -0.0238095 0.357143 
-0.5 0.0238095 0.357143 
-0.5 0.0714286 0.357143 
-0.5 -0.0714286 0.404762 
-0.5 -0.0238095 0.404762 
-0.5 0.0238095 0.404762 
-0.5 0.0714286 0.404762 
-0.5 -0.0714286 0.452381 
-0.5 -0.0238095 0.452381 
-0.5 0.0238095 0.452381 
-0.5 0.0714286 0.452381 
-0.5 -0.0714286 0.5 
-0.5 -0.0238095 0.5 
-0.5 0.0238095 0.5 
-0.5 0.0714286 0.5 
-0.5 0.0714286 -0.5 
-0.5 0.119048 -0.5 
-0.5 0.166667 -0.5 
-0.5 0.214286 -0.5 
-0.5 0.0714286 -0.452381 
-0.5 0.119048 -0.452381 
-0.5 0.166667 -0.452381 
-0.5 0.214286 -0.452381 
-0.5 0.0714286 -0.404762 
-0.5 0.119048 -0.404762 
-0.5 0.166667 -0.404762 
-0.5 0.214286 -0.404762 
-0.5 0.0714286 -0.357143 
-0.5 0.119048 -0.357143 
-0.5 0.166667 -0.357143 
-0.5 0.214286 -0.357143 
-0.5 0.0714286 -0.357143 
-0.5 0.119048 -0.357143 
-0.5 0.166667 -0.357143 
-0.5 0.214286 -0.357143 
-0.5 0.0714286 -0.309524 
-0.5 0.119048 -0.309524 
-0.5 0.166667 -0.309524 
-0.5 0.214286 -0.309524 
-0.5 0.0714286 -0.261905 
-0.5 0.119048 -0.261905 
-0.5 0.166667 -0.261905 
-0.5 0.214286 -0.261905 
-0.5 0.0714286 -0.214286 
-0.5 0.119048 -0.214286 
-0.5 0.166667 -0.214286 
-0.5 0.214286 -0.214286 
-0.5 0.0714286 -0.214286 
-0.5 0.119048 -0.214286 
-0.5 0.166667 -0.214286 
-0.5 0.214286 -0.214286 
-0.5 0.0714286 -0.166667 
-0.5 0.119048 -0.166667 
-0.5 0.166667 -0.166667 
-0.5 0.214286 -0.166667 
-0.5 0.0714286 -0.119048 
-0.5 0.119048 -0.119048 
-0.5 0.166667 -0.119048 
-0.5 0.214286 -0.119048 
-0.5 0.0714286 -0.0714286 
-0.5 0.119048 -0.0714286 
-0.5 0.166667 -0.0714286 
-0.5 0.214286 -0.0714286 
-0.5 0.0714286 -0.0714286 
-0.5 0.119048 -0.0714286 
-0.5 0.166667 -0.0714286 
-0.5 0.214286 -0.0714286 
-0.5 0.0714286 -0.0238095 
-0.5 0.119048 -0.0238095 
-0.5 0.166667 -0.0238095 
-0.5 0.214286 -0.0238095 
-0.5 0.0714286 0.0238095 
-0.5 0.119048 0.0238095 
-0.5 0.166667 0.0238095 
-0.5 0.214286 0.0238095 
-0.5 0.0714286 0.0714286 
-0.5 0.119048 0.0714286 
-0.5 0.166667 0.0714286 
-0.5 0.214286 0.0714286 
-0.5 0.0714286 0.0714286 
-0.5 0.119048 0.0714286 
-0.5 0.166667 0.0714286 
-0.5 0.214286 0.0714286 
-0.5 0.0714286 0.119048 
-0.5 0.119048 0.119048 
-0.5 0.166667 0.119048 
-0.5 0.214286 0.119048 
-0.5 0.0714286 0.166667 
-0.5 0.119048 0.166667 
-0.5 0.166667 0.166667 
-0.5 0.214286 0.166667 
-0.5 0.0714286 0.214286 
-0.5 0.119048 0.214286 
-0.5 0.166667 0.214286 
-0.5 0.214286 0.214286 
-0.5 0.0714286 0.214286 
-0.5 0.119048 0.214286 
-0.5 0.166667 0.214286 
-0.5 0.214286 0.214286 
-0.5 0.0714286 0.261905 
-0.5 0.119048 0.261905 
-0.5 0.166667 0.261905 
-0.5 0.214286 0.261905 
-0.5 0.0714286 0.309524 
-0.5 0.119048 0.309524 
-0.5 0.166667 0.309524 
-0.5 0.214286 0.309524 
-0.5 0.0714286 0.357143 
-0.5 0.119048 0.357143 
-0.5 0.166667 0.357143 
-0.5 0.214286 0.357143 
-0.5 0.0714286 0.357143 
-0.5 0.119048 0.357143 
-0.5 0.166667 0.357143 
-0.5 0.214286 0.357143 
-0.5 0.0714286 0.404762 
-0.5 0.119048 0.404762 
-0.5 0.166667 0.404762 
-0.5 0.214286 0.404762 
-0.5 0.0714286 0.452381 
-0.5 0.119048 0.452381 
-0.5 0.166667 0.452381 
-0.5 0.214286 0.452381 
-0.5 0.0714286 0.5 
-0.5 0.119048 0.5 
-0.5 0.166667 0.5 
-0.5 0.214286 0.5 
-0.5 0.214286 -0.5 
-0.5 0.261905 -0.5 
-0.5 0.309524 -0.5 
-0.5 0.357143 -0.5 
-0.5 0.214286 -0.452381 
-0.5 0.261905 -0.452381 
-0.5 0.309524 -0.452381 
-0.5 0.357143 -0.452381 
-0.5 0.214286 -0.404762 
-0.5 0.261905 -0.404762 
-0.5 0.309524 -0.404762 
-0.5 0.357143 -0.404762 
-0.5 0.214286 -0.357143 
-0.5 0.261905 -0.357143 
-0.5 0.309524 -0.357143 
-0.5 0.357143 -0.357143 
-0.5 0.214286 -0.357143 
-0.5 0.261905 -0.357143 
-0.5 0.309524 -0.357143 
-0.5 0.357143 -0.357143 
-0.5 0.214286 -0.309524 
-0.5 0.261905 -0.309524 
-0.5 0.309524 -0.309524 
-0.5 0.357143 -0.309524 
-0.5 0.214286 -0.261905 
-0.5 0.261905 -0.261905 
-0.5 0.309524 -0.261905 
-0.5 0.357143 -0.261905 
-0.5 0.214286 -0.214286 
-0.5 0.261905 -0.214286 
-0.5 0.309524 -0.214286 
-0.5 0.357143 -0.214286 
-0.5 0.214286 -0.214286 
-0.5 0.261905 -0.214286 
-0.5 0.309524 -0.214286 
-0.5 0.357143 -0.214286 
-0.5 0.214286 -0.166667 
-0.5 0.261905 -0.166667 
-0.5 0.309524 -0.166667 
-0.5 0.357143 -0.166667 
-0.5 0.214286 -0.119048 
-0.5 0.261905 -0.119048 
-0.5 0.309524 -0.119048 
-0.5 0.357143 -0.119048 
-0.5 0.214286 -0.0714286 
-0.5 0.261905 -0.0714286 
-0.5 0.309524 -0.0714286 
-0.5 0.357143 -0.0714286 
-0.5 0.214286 -0.0714286 
-0.5 0.261905 -0.0714286 
-0.5 0.309524 -0.0714286 
-0.5 0.357143 -0.0714286 
-0.5 0.214286 -0.0238095 
-0.5 0.261905 -0.0238095 
-0.5 0.309524 -0.0238095 
-0.5 0.357143 -0.0238095 
-0.5 0.214286 0.0238095 
-0.5 0.261905 0.0238095 
-0.5 0.309524 0.0238095 
-0.5 0.357143 0.0238095 
-0.5 0.214286 0.0714286 
-0.5 0.261905 0.0714286 
-0.5 0.309524 0.0714286 
-0.5 0.357143 0.0714286 
-0.5 0.214286 0.0714286 
-0.5 0.261905 0.0714286 
-0.5 0.309524 0.0714286 
-0.5 0.357143 0.0714286 
-0.5 0.214286 0.119048 
-0.5 0.261905 0.119048 
-0.5 0.309524 0.119048 
-0.5 0.357143 0.119048 
-0.5 0.214286 0.166667 
-0.5 0.261905 0.166667 
-0.5 0.309524 0.166667 
-0.5 0.357143 0.166667 
-0.5 0.214286 0.214286 
-0.5 0.261905 0.214286 
-0.5 0.309524 0.214286 
-0.5 0.357143 0.214286 
-0.5 0.214286 0.214286 
-0.5 0.261905 0.214286 
-0.5 0.309524 0.214286 
-0.5 0.357143 0.214286 
-0.5 0.214286 0.261905 
-0.5 0.261905 0.261905 
-0.5 0.309524 0.261905 
-0.5 0.357143 0.261905 
-0.5 0.214286 0.309524 
-0.5 0.261905 0.309524 
-0.5 0.309524 0.309524 
-0.5 0.357143 0.309524 
-0.5 0.214286 0.357143 
-0.5 0.261905 0.357143 
-0.5 0.309524 0.357143 
-0.5 0.357143 0.357143 
-0.5 0.214286 0.357143 
-0.5 0.261905 0.357143 
-0.5 0.309524 0.357143 
-0.5 0.357143 0.357143 
-0.5 0.214286 0.404762 
-0.5 0.261905 0.404762 
-0.5 0.309524 0.404762 
-0.5 0.357143 0.404762 
-0.5 0.214286 0.452381 
-0.5 0.261905 0.452381 
-0.5 0.309524 0.452381 
-0.5 0.357143 0.452381 
-0.5 0.214286 0.5 
-0.5 0.261905 0.5 
-0.5 0.309524 0.5 
-0.5 0.357143 0.5 
-0.5 0.357143 -0.5 
-0.5 0.404762 -0.5 
-0.5 0.452381 -0.5 
-0.5 0.5 -0.5 
-0.5 0.357143 -0.452381 
-0.5 0.404762 -0.452381 
-0.5 0.452381 -0.452381 
-0.5 0.5 -0.452381 
-0.5 0.357143 -0.404762 
-0.5 0.404762 -0.404762 
-0.5 0.452381 -0.404762 
-0.5 0.5 -0.404762 
-0.5 0.357143 -0.357143 
-0.5 0.404762 -0.357143 
-0.5 0.452381 -0.357143 
-0.5 0.5 -0.357143 
-0.5 0.357143 -0.357143 
-0.5 0.404762 -0.357143 
-0.5 0.452381 -0.357143 
-0.5 0.5 -0.357143 
-0.5 0.357143 -0.309524 
-0.5 0.404762 -0.309524 
-0.5 0.452381 -0.309524 
-0.5 0.5 -0.309524 
-0.5 0.357143 -0.261905 
-0.5 0.404762 -0.261905 
-0.5 0.452381 -0.261905 
-0.5 0.5 -0.261905 
-0.5 0.357143 -0.214286 
-0.5 0.404762 -0.214286 
-0.5 0.452381 -0.214286 
-0.5 0.5 -0.214286 
-0.5 0.357143 -0.214286 
-0.5 0.404762 -0.214286 
-0.5 0.452381 -0.214286 
-0.5 0.5 -0.214286 
-0.5 0.357143 -0.166667 
-0.5 0.404762 -0.166667 
-0.5 0.452381 -0.166667 
-0.5 0.5 -0.166667 
-0.5 0.357143 -0.119048 
-0.5 0.404762 -0.119048 
-0.5 0.452381 -0.119048 
-0.5 0.5 -0.119048 
-0.5 0.357143 -0.0714286 
-0.5 0.404762 -0.0714286 
-0.5 0.452381 -0.0714286 
-0.5 0.5 -0.0714286 
-0.5 0.357143 -0.0714286 
-0.5 0.404762 -0.0714286 
-0.5 0.452381 -0.0714286 
-0.5 0.5 -0.0714286 
-0.5 0.357143 -0.0238095 
-0.5 0.404762 -0.0238095 
-0.5 0.452381 -0.0238095 
-0.5 0.5 -0.0238095 
-0.5 0.357143 0.0238095 
-0.5 0.404762 0.0238095 
-0.5 0.452381 0.0238095 
-0.5 0.5 0.0238095 
-0.5 0.357143 0.0714286 
-0.5 0.404762 0.0714286 
-0.5 0.452381 0.0714286 
-0.5 0.5 0.0714286 
-0.5 0.357143 0.0714286 
-0.5 0.404762 0.0714286 
-0.5 0.452381 0.0714286 
-0.5 0.5 0.0714286 
-0.5 0.357143 0.119048 
-0.5 0.404762 0.119048 
-0.5 0.452381 0.119048 
-0.5 0.5 0.119048 
-0.5 0.357143 0.166667 
-0.5 0.404762 0.166667 
-0.5 0.452381 0.166667 
-0.5 0.5 0.166667 
-0.5 0.357143 0.214286 
-0.5 0.404762 0.214286 
-0.5 0.452381 0.214286 
-0.5 0.5 0.214286 
-0.5 0.357143 0.214286 
-0.5 0.404762 0.214286 
-0.5 0.452381 0.214286 
-0.5 0.5 0.214286 
-0.5 0.357143 0.261905 
-0.5 0.404762 0.261905 
-0.5 0.452381 0.261905 
-0.5 0.5 0.261905 
-0.5 0.357143 0.309524 
-0.5 0.404762 0.309524 
-0.5 0.452381 0.309524 
-0.5 0.5 0.309524 
-0.5 0.357143 0.357143 
-0.5 0.404762 0.357143 
-0.5 0.452381 0.357143 
-0.5 0.5 0.357143 
-0.5 0.357143 0.357143 
-0.5 0.404762 0.357143 
-0.5 0.452381 0.357143 
-0.5 0.5 0.357143 
-0.5 0.357143 0.404762 
-0.5 0.404762 0.404762 
-0.5 0.452381 0.404762 
-0.5 0.5 0.404762 
-0.5 0.357143 0.452381 
-0.5 0.404762 0.452381 
-0.5 0.452381 0.452381 
-0.5 0.5 0.452381 
-0.5 0.357143 0.5 
-0.5 0.404762 0.5 
-0.5 0.452381 0.5 
-0.5 0.5 0.5 
CELLS 49 833

16	0	3	15	12	1	2	7	11	13	14	4	8	5	6	9	10
16	16	19	31	28	17	18	23	27	29	30	20	24	21	22	25	26
16	32	35	47	44	33	34	39	43	45	46	36	40	37	38	41	42
16	48	51	63	60	49	50	55	59	61	62	52	56	53	54	57	58
16	64	67	79	76	65	66	71	75	77	78	68	72	69	70	73	74
16	80	83	95	92	81	82	87	91	93	94	84	88	85	86	89	90
16	96	99	111	108	97	98	103	107	109	110	100	104	101	102	105	106
16	112	115	127	124	113	114	119	123	125	126	116	120	117	118	121	122
16	128	131	143	140	129	130	135	139	141	142	132	136	133	134	137	138
16	144	147	159	156	145	146	151	155	157	158	148	152	149	150	153	154
16	160	163	175	172	161	162	167	171	173	174	164	168	165	166	169	170
16	176	179	191	188	177	178	183	187	189	190	180	184	181	182	185	186
16	192	195	207	204	193	194	199	203	205	206	196	200	197	198	201	202
16	208	211	223	220	209	210	215	219	221	222	212	216	213	214	217	218
16	224	227	239	236	225	226	231	235	237	238	228	232	229	230	233	234
16	240	243	255	252	241	242	247	251	253	254	244	248	245	246	249	250
16	256	259	271	268	257	258	263	267	269	270	260	264	261	262	265	266
16	272	275	287	284	273	274	279	283	285	286	276	280	277	278	281	282
16	288	291	303	300	289	290	295	299	301	302	292	296	293	294	297	298
16	304	307	319	316	305	306	311	315	317	318	308	312	309	310	313	314
16	320	323	335	332	321	322	327	331	333	334	324	328	325	326	329	330
16	336	339	351	348	337	338	343	347	349	350	340	344	341	342	345	346
16	352	355	367	364	353	354	359	363	365	366	356	360	357	358	361	362
16	368	371	383	380	369	370	375	379	381	382	372	376	373	374	377	378
16	384	387	399	396	385	386	391	395	397	398	388	392	389	390	393	394
16	400	403	415	412	401	402	407	411	413	414	404	408	405	406	409	410
16	416	419	431	428	417	418	423	427	429	430	420	424	421	422	425	426
16	432	435	447	444	433	434	439	443	445	446	436	440	437	438	441	442
16	448	451	463	460	449	450	455	459	461	462	452	456	453	454	457	458
16	464	467	479	476	465	466	471	475	477	478	468	472	469	470	473	474
16	480	483	495	492	481	482	487	491	493	494	484	488	485	486	489	490
16	496	499	511	508	497	498	503	507	509	510	500	504	501	502	505	506
16	512	515	527	524	513	514	519	523	525	526	516	520	517	518	521	522
16	528	531	543	540	529	530	535	539	541	542	532	536	533	534	537	538
16	544	547	559	556	545	546	551	555	557	558	548	552	549	550	553	554
16	560	563	575	572	561	562	567	571	573	574	564	568	565	566	569	570
16	576	579	591	588	577	578	583	587	589	590	580	584	581	582	585	586
16	592	595	607	604	593	594	599	603	605	606	596	600	597	598	601	602
16	608	611	623	620	609	610	615	619	621	622	612	616	613	614	617	618
16	624	627	639	636	625	626	631	635	637	638	628	632	629	630	633	634
16	640	643	655	652	641	642	647	651	653	654	644	648	645	646	649	650
16	656	659	671	668	657	658	663	667	669	670	660	664	661	662	665	666
16	672	675	687	684	673	674	679	683	685	686	676	680	677	678	681	682
16	688	691	703	700	689	690	695	699	701	702	692	696	693	694	697	698
16	704	707	719	716	705	706	711	715	717	718	708	712	709	710	713	714
16	720	723	735	732	721	722	727	731	733	734	724	728	725	726	729	730
16	736	739	751	748	737	738	743	747	749	750	740	744	741	742	745	746
16	752	755	767	764	753	754	759	763	765	766	756	760	757	758	761	762
16	768	771	783	780	769	770	775	779	781	782	772	776	773	774	777	778

CELL_TYPES 49
 70
 70
 70
 70
 70
 70
 70
 70
 70
 70
 70
 70
 70
 70
 70
 70
 70
 70
 70
 70
 70
 70
 70
 70
 70
 70
 70
 70
 70
 70
 70
 70
 70
 70
 70
 70
 70
 70
 70
 70
 70
 70
 70
 70
 70
 70
 70
 70
 70
CELL_DATA 49
SCALARS fe_degrees double 1
LOOKUP_TABLE default
 1 1 1 1 1 1 1 1 1 1 1 1 1 1 1 1 1 1 1 1 1 1 1 1 1 1 1 1 1 1 1 1 1 1 1 1 1 1 1 1 1 1 1 1 1 1 1 1 1
SCALARS dofs_per_cell double 1
LOOKUP_TABLE default
 8 10 10 10 10 10 8 10 12 12 12 12 12 10 10 12 12 12 12 12 10 10 12 12 12 12 12 10 10 12 12 12 12 12 10 10 12 12 12 12 12 10 8 10 10 10 10 10 8
SCALARS abs_qoi_error double 1
LOOKUP_TABLE default
 0.00241947 0.00156505 0.00172994 0.00186847 0.00172979 0.00182233 0.00275481 0.00233516 0.000763539 0.000590009 0.000677202 0.000587859 0.000929305 0.00273743 0.00219224 0.000726858 0.000486136 0.000562638 0.000479729 0.000845637 0.00258868 0.00213021 0.000884901 0.00062667 0.000728935 0.000616419 0.000991892 0.00252426 0.0021191 0.000926387 0.000739698 0.000836977 0.00072971 0.00106472 0.00250997 0.00214804 0.000928515 0.000725717 0.000839121 0.000717262 0.00109066 0.00254489 0.00178527 0.00101743 0.00128764 0.00131578 0.00129205 0.00124174 0.00206757

